ITEM: TIMESTEP
0
ITEM: NUMBER OF ATOMS
2160
ITEM: BOX BOUNDS pp pp pp
-3.1306818346827800e+01 3.1306818346827800e+01
-7.6685730419729996e+00 7.6685730419729996e+00
-1.3282358130224500e+01 1.3282358130224500e+01
ITEM: ATOMS id type x y z c_eng c_csym 
432 1 -31.3068 -3.83429 -11.0686 -3.54003 6.53411 
446 1 -31.3068 -7.66857 -8.85491 -3.54003 6.53411 
447 1 -31.3068 -6.39048 -11.0686 -3.54003 6.53411 
448 1 -31.3068 -5.11238 -8.85491 -3.54003 6.53411 
450 1 -29.2197 -3.83429 -9.59281 -3.53631 1.26218e-28 
451 1 -29.2197 -6.39048 -9.59281 -3.53631 9.57305e-23 
627 1 -29.2197 -7.66857 -11.8065 -3.53631 2.86948e-21 
628 1 -29.2197 -5.11238 -11.8065 -3.53631 2.39111e-21 
629 1 -27.1326 -5.11238 -10.3307 -3.53995 6.31089e-29 
630 1 -27.1326 -3.83429 -12.5444 -3.53995 3.58605e-21 
631 1 -27.1326 -6.39048 -12.5444 -3.53995 3.68153e-21 
649 1 -27.1326 -7.66857 -10.3307 -3.53995 4.78651e-22 
635 1 -25.0455 -3.83429 -11.0686 -3.54003 1.00974e-28 
650 1 -25.0455 -7.66857 -8.85491 -3.54003 4.7865e-22 
651 1 -25.0455 -6.39048 -11.0686 -3.54003 9.57302e-23 
652 1 -25.0455 -5.11238 -8.85491 -3.54003 5.04871e-29 
654 1 -22.9583 -3.83429 -9.59281 -3.54003 1.3884e-28 
655 1 -22.9583 -6.39048 -9.59281 -3.54003 9.57301e-23 
795 1 -22.9583 -7.66857 -11.8065 -3.54003 2.86902e-21 
796 1 -22.9583 -5.11238 -11.8065 -3.54003 2.39037e-21 
797 1 -20.8712 -5.11238 -10.3307 -3.54003 1.3884e-28 
798 1 -20.8712 -3.83429 -12.5444 -3.54003 3.58482e-21 
799 1 -20.8712 -6.39048 -12.5444 -3.54003 3.68055e-21 
803 1 -18.7841 -3.83429 -11.0686 -3.54003 1.3884e-28 
817 1 -20.8712 -7.66857 -10.3307 -3.54003 4.7865e-22 
818 1 -18.7841 -7.66857 -8.85491 -3.54003 4.78755e-22 
819 1 -18.7841 -6.39048 -11.0686 -3.54003 9.57653e-23 
820 1 -18.7841 -5.11238 -8.85491 -3.54003 2.33503e-28 
822 1 -16.697 -3.83429 -9.59281 -3.54003 1.7986e-28 
823 1 -16.697 -6.39048 -9.59281 -3.54003 9.56954e-23 
927 1 -16.697 -7.66857 -11.8065 -3.54003 2.86867e-21 
928 1 -16.697 -5.11238 -11.8065 -3.54003 2.38988e-21 
929 1 -14.6098 -5.11238 -10.3307 -3.54003 1.13596e-28 
930 1 -14.6098 -3.83429 -12.5444 -3.54003 3.58605e-21 
931 1 -14.6098 -6.39048 -12.5444 -3.54003 3.6815e-21 
949 1 -14.6098 -7.66857 -10.3307 -3.54003 4.78477e-22 
935 1 -12.5227 -3.83429 -11.0686 -3.54003 5.36425e-29 
950 1 -12.5227 -7.66857 -8.85491 -3.54003 4.78477e-22 
951 1 -12.5227 -6.39048 -11.0686 -3.54003 9.56955e-23 
952 1 -12.5227 -5.11238 -8.85491 -3.54003 5.04871e-29 
954 1 -10.4356 -3.83429 -9.59281 -3.54003 1.64083e-28 
955 1 -10.4356 -6.39048 -9.59281 -3.54003 9.56954e-23 
1023 1 -10.4356 -7.66857 -11.8065 -3.54003 2.86881e-21 
1024 1 -10.4356 -5.11238 -11.8065 -3.54003 2.39037e-21 
1025 1 -8.34848 -5.11238 -10.3307 -3.54003 1.00974e-28 
1026 1 -8.34848 -3.83429 -12.5444 -3.54003 3.58629e-21 
1027 1 -8.34848 -6.39048 -12.5444 -3.54003 3.68199e-21 
1031 1 -6.26136 -3.83429 -11.0686 -3.54003 3.15544e-29 
1041 1 -8.34848 -7.66857 -10.3307 -3.54003 4.78581e-22 
1042 1 -6.26136 -7.66857 -8.85491 -3.54003 4.7865e-22 
1043 1 -6.26136 -6.39048 -11.0686 -3.54003 9.57301e-23 
1044 1 -6.26136 -5.11238 -8.85491 -3.54003 1.0413e-28 
1046 1 -4.17424 -3.83429 -9.59281 -3.53995 3.47099e-29 
1047 1 -4.17424 -6.39048 -9.59281 -3.53995 9.57648e-23 
1074 1 -4.17424 -7.66857 -11.8065 -3.53995 2.86948e-21 
1075 1 -4.17424 -5.11238 -11.8065 -3.53995 2.39013e-21 
1076 1 -2.08712 -5.11238 -10.3307 -3.53631 1.06496e-28 
1077 1 -2.08712 -3.83429 -12.5444 -3.53631 3.5858e-21 
1078 1 -2.08712 -6.39048 -12.5444 -3.53631 3.68181e-21 
1080 1 -2.08712 -7.66857 -10.3307 -3.53631 4.78581e-22 
1082 1 0 -6.39048 -11.0686 -3.54003 6.53411 
1083 1 -8.88178e-16 -3.83429 -11.0686 -3.54003 6.53411 
1085 1 2.08712 -6.39048 -12.5444 -3.53631 3.68181e-21 
1090 1 2.08712 -3.83429 -12.5444 -3.53631 3.5858e-21 
1099 1 8.88178e-16 -7.66857 -8.85491 -3.54003 6.53411 
1104 1 0 -5.11238 -8.85491 -3.54003 6.53411 
1105 1 2.08712 -5.11238 -10.3307 -3.53631 1.12807e-28 
1108 1 2.08712 -7.66857 -10.3307 -3.53631 4.78581e-22 
1109 1 4.17424 -7.66857 -11.8065 -3.53995 2.86948e-21 
1110 1 4.17424 -6.39048 -9.59281 -3.53995 9.57648e-23 
1120 1 4.17424 -3.83429 -9.59281 -3.53995 3.47099e-29 
1122 1 4.17424 -5.11238 -11.8065 -3.53995 2.39013e-21 
1124 1 6.26136 -6.39048 -11.0686 -3.54003 9.57301e-23 
1125 1 6.26136 -3.83429 -11.0686 -3.54003 3.15544e-29 
1127 1 8.34848 -6.39048 -12.5444 -3.54003 3.68199e-21 
1142 1 8.34848 -3.83429 -12.5444 -3.54003 3.58629e-21 
1171 1 6.26136 -7.66857 -8.85491 -3.54003 4.7865e-22 
1188 1 6.26136 -5.11238 -8.85491 -3.54003 1.0413e-28 
1189 1 8.34848 -5.11238 -10.3307 -3.54003 1.00974e-28 
1192 1 8.34848 -7.66857 -10.3307 -3.54003 4.78581e-22 
1193 1 10.4356 -7.66857 -11.8065 -3.54003 2.86881e-21 
1194 1 10.4356 -6.39048 -9.59281 -3.54003 9.56954e-23 
1210 1 10.4356 -3.83429 -9.59281 -3.54003 1.64083e-28 
1212 1 10.4356 -5.11238 -11.8065 -3.54003 2.39037e-21 
1214 1 12.5227 -6.39048 -11.0686 -3.54003 9.56955e-23 
1215 1 12.5227 -3.83429 -11.0686 -3.54003 5.36425e-29 
1295 1 12.5227 -7.66857 -8.85491 -3.54003 4.78477e-22 
1314 1 12.5227 -5.11238 -8.85491 -3.54003 5.04871e-29 
1217 1 14.6098 -6.39048 -12.5444 -3.54003 3.6815e-21 
1232 1 14.6098 -3.83429 -12.5444 -3.54003 3.58605e-21 
1315 1 14.6098 -5.11238 -10.3307 -3.54003 1.13596e-28 
1318 1 14.6098 -7.66857 -10.3307 -3.54003 4.78477e-22 
1319 1 16.697 -7.66857 -11.8065 -3.54003 2.86867e-21 
1320 1 16.697 -6.39048 -9.59281 -3.54003 9.56954e-23 
1336 1 16.697 -3.83429 -9.59281 -3.54003 1.7986e-28 
1338 1 16.697 -5.11238 -11.8065 -3.54003 2.38988e-21 
1340 1 18.7841 -6.39048 -11.0686 -3.54003 9.57653e-23 
1341 1 18.7841 -3.83429 -11.0686 -3.54003 1.3884e-28 
1343 1 20.8712 -6.39048 -12.5444 -3.54003 3.68055e-21 
1358 1 20.8712 -3.83429 -12.5444 -3.54003 3.58482e-21 
1457 1 18.7841 -7.66857 -8.85491 -3.54003 4.78755e-22 
1476 1 18.7841 -5.11238 -8.85491 -3.54003 2.33503e-28 
1477 1 20.8712 -5.11238 -10.3307 -3.54003 1.3884e-28 
1480 1 20.8712 -7.66857 -10.3307 -3.54003 4.7865e-22 
1481 1 22.9583 -7.66857 -11.8065 -3.54003 2.86902e-21 
1482 1 22.9583 -6.39048 -9.59281 -3.54003 9.57301e-23 
1498 1 22.9583 -3.83429 -9.59281 -3.54003 1.3884e-28 
1500 1 22.9583 -5.11238 -11.8065 -3.54003 2.39037e-21 
1502 1 25.0455 -6.39048 -11.0686 -3.54003 9.57302e-23 
1503 1 25.0455 -3.83429 -11.0686 -3.54003 1.00974e-28 
1655 1 25.0455 -7.66857 -8.85491 -3.54003 4.7865e-22 
1674 1 25.0455 -5.11238 -8.85491 -3.54003 5.04871e-29 
1505 1 27.1326 -6.39048 -12.5444 -3.53995 3.68153e-21 
1520 1 27.1326 -3.83429 -12.5444 -3.53995 3.58605e-21 
1675 1 27.1326 -5.11238 -10.3307 -3.53995 6.31089e-29 
1678 1 27.1326 -7.66857 -10.3307 -3.53995 4.78651e-22 
1679 1 29.2197 -7.66857 -11.8065 -3.53631 7.83314e-21 
1680 1 29.2197 -6.39048 -9.59281 -3.53631 5.05823e-21 
1696 1 29.2197 -3.83429 -9.59281 -3.53631 4.96308e-21 
1698 1 29.2197 -5.11238 -11.8065 -3.53631 7.35419e-21 
422 1 -31.3068 2.55619 -8.85491 -3.54003 6.53411 
424 1 -31.3068 1.2781 -11.0686 -3.54003 6.53411 
430 1 -31.3068 -2.55619 -8.85491 -3.54003 6.53411 
431 1 -31.3068 -1.2781 -11.0686 -3.54003 6.53411 
433 1 -31.3068 0 -8.85491 -3.54003 6.53411 
435 1 -29.2197 1.2781 -9.59281 -3.53631 3.78653e-28 
436 1 -29.2197 -1.2781 -9.59281 -3.53631 3.78653e-28 
604 1 -29.2197 2.55619 -11.8065 -3.53631 2.39062e-21 
612 1 -29.2197 -2.55619 -11.8065 -3.53631 2.39062e-21 
613 1 -29.2197 0 -11.8065 -3.53631 2.39086e-21 
614 1 -27.1326 0 -10.3307 -3.53995 1.26218e-28 
615 1 -27.1326 1.2781 -12.5444 -3.53995 3.58482e-21 
616 1 -27.1326 -1.2781 -12.5444 -3.53995 3.58482e-21 
617 1 -27.1326 2.55619 -10.3307 -3.53995 3.66031e-28 
632 1 -27.1326 -2.55619 -10.3307 -3.53995 3.66031e-28 
618 1 -25.0455 2.55619 -8.85491 -3.54003 1.51461e-28 
620 1 -25.0455 1.2781 -11.0686 -3.54003 1.3884e-28 
633 1 -25.0455 -2.55619 -8.85491 -3.54003 1.51461e-28 
634 1 -25.0455 -1.2781 -11.0686 -3.54003 1.3884e-28 
636 1 -25.0455 0 -8.85491 -3.54003 3.28166e-28 
638 1 -22.9583 1.2781 -9.59281 -3.54003 2.65057e-28 
639 1 -22.9583 -1.2781 -9.59281 -3.54003 2.65057e-28 
772 1 -22.9583 2.55619 -11.8065 -3.54003 2.39037e-21 
780 1 -22.9583 -2.55619 -11.8065 -3.54003 2.39037e-21 
781 1 -22.9583 0 -11.8065 -3.54003 2.39037e-21 
782 1 -20.8712 0 -10.3307 -3.54003 1.13596e-28 
783 1 -20.8712 1.2781 -12.5444 -3.54003 3.58605e-21 
784 1 -20.8712 -1.2781 -12.5444 -3.54003 3.58605e-21 
785 1 -20.8712 2.55619 -10.3307 -3.54003 3.66031e-28 
786 1 -18.7841 2.55619 -8.85491 -3.54003 1.00974e-28 
788 1 -18.7841 1.2781 -11.0686 -3.54003 1.00974e-28 
800 1 -20.8712 -2.55619 -10.3307 -3.54003 3.66031e-28 
801 1 -18.7841 -2.55619 -8.85491 -3.54003 1.00974e-28 
802 1 -18.7841 -1.2781 -11.0686 -3.54003 1.00974e-28 
804 1 -18.7841 0 -8.85491 -3.54003 0 
806 1 -16.697 1.2781 -9.59281 -3.54003 0 
807 1 -16.697 -1.2781 -9.59281 -3.54003 0 
904 1 -16.697 2.55619 -11.8065 -3.54003 2.39037e-21 
912 1 -16.697 -2.55619 -11.8065 -3.54003 2.39037e-21 
913 1 -16.697 0 -11.8065 -3.54003 2.39037e-21 
914 1 -14.6098 0 -10.3307 -3.54003 0 
915 1 -14.6098 1.2781 -12.5444 -3.54003 3.58605e-21 
916 1 -14.6098 -1.2781 -12.5444 -3.54003 3.58605e-21 
917 1 -14.6098 2.55619 -10.3307 -3.54003 2.8399e-29 
932 1 -14.6098 -2.55619 -10.3307 -3.54003 2.8399e-29 
918 1 -12.5227 2.55619 -8.85491 -3.54003 1.0413e-28 
920 1 -12.5227 1.2781 -11.0686 -3.54003 1.57772e-29 
933 1 -12.5227 -2.55619 -8.85491 -3.54003 1.0413e-28 
934 1 -12.5227 -1.2781 -11.0686 -3.54003 1.57772e-29 
936 1 -12.5227 0 -8.85491 -3.54003 2.8399e-29 
938 1 -10.4356 1.2781 -9.59281 -3.54003 5.99534e-29 
939 1 -10.4356 -1.2781 -9.59281 -3.54003 5.99534e-29 
1000 1 -10.4356 2.55619 -11.8065 -3.54003 2.39062e-21 
1008 1 -10.4356 -2.55619 -11.8065 -3.54003 2.39062e-21 
1009 1 -10.4356 0 -11.8065 -3.54003 2.39037e-21 
1010 1 -8.34848 0 -10.3307 -3.54003 5.36425e-29 
1011 1 -8.34848 1.2781 -12.5444 -3.54003 3.58482e-21 
1012 1 -8.34848 -1.2781 -12.5444 -3.54003 3.58482e-21 
1013 1 -8.34848 2.55619 -10.3307 -3.54003 9.15079e-29 
1014 1 -6.26136 2.55619 -8.85491 -3.54003 1.34106e-28 
1016 1 -6.26136 1.2781 -11.0686 -3.54003 4.73317e-29 
1028 1 -8.34848 -2.55619 -10.3307 -3.54003 9.15079e-29 
1029 1 -6.26136 -2.55619 -8.85491 -3.54003 1.34106e-28 
1030 1 -6.26136 -1.2781 -11.0686 -3.54003 4.73317e-29 
1032 1 -6.26136 0 -8.85491 -3.54003 5.04871e-29 
1034 1 -4.17424 1.2781 -9.59281 -3.53995 5.44314e-29 
1035 1 -4.17424 -1.2781 -9.59281 -3.53995 5.44314e-29 
1060 1 -4.17424 2.55619 -11.8065 -3.53995 2.39013e-21 
1067 1 -4.17424 -2.55619 -11.8065 -3.53995 2.39013e-21 
1068 1 -4.17424 0 -11.8065 -3.53995 2.39086e-21 
1069 1 -2.08712 0 -10.3307 -3.53631 3.78653e-29 
1070 1 -2.08712 1.2781 -12.5444 -3.53631 3.58605e-21 
1071 1 -2.08712 -1.2781 -12.5444 -3.53631 3.58605e-21 
1072 1 -2.08712 2.55619 -10.3307 -3.53631 8.83524e-29 
1079 1 -2.08712 -2.55619 -10.3307 -3.53631 8.83524e-29 
1087 1 -8.88178e-16 -1.2781 -11.0686 -3.54003 6.53411 
1088 1 -8.88178e-16 1.2781 -11.0686 -3.54003 6.53411 
1091 1 2.08712 -1.2781 -12.5444 -3.53631 3.58605e-21 
1096 1 2.08712 1.2781 -12.5444 -3.53631 3.58605e-21 
1101 1 0 -2.55619 -8.85491 -3.54003 6.53411 
1111 1 0 2.55619 -8.85491 -3.54003 6.53411 
1114 1 0 0 -8.85491 -3.54003 6.53411 
1115 1 2.08712 0 -10.3307 -3.53631 5.04871e-29 
1118 1 2.08712 -2.55619 -10.3307 -3.53631 8.20415e-29 
1119 1 4.17424 -2.55619 -11.8065 -3.53995 2.39013e-21 
1121 1 4.17424 -1.2781 -9.59281 -3.53995 5.44314e-29 
1133 1 2.08712 2.55619 -10.3307 -3.53631 8.20415e-29 
1134 1 4.17424 2.55619 -11.8065 -3.53995 2.39013e-21 
1135 1 4.17424 1.2781 -9.59281 -3.53995 5.44314e-29 
1137 1 4.17424 0 -11.8065 -3.53995 2.39086e-21 
1139 1 6.26136 -1.2781 -11.0686 -3.54003 4.73317e-29 
1140 1 6.26136 1.2781 -11.0686 -3.54003 4.73317e-29 
1143 1 8.34848 -1.2781 -12.5444 -3.54003 3.58482e-21 
1150 1 8.34848 1.2781 -12.5444 -3.54003 3.58482e-21 
1185 1 6.26136 -2.55619 -8.85491 -3.54003 1.34106e-28 
1201 1 6.26136 2.55619 -8.85491 -3.54003 1.34106e-28 
1204 1 6.26136 0 -8.85491 -3.54003 5.04871e-29 
1205 1 8.34848 0 -10.3307 -3.54003 5.36425e-29 
1208 1 8.34848 -2.55619 -10.3307 -3.54003 9.15079e-29 
1223 1 8.34848 2.55619 -10.3307 -3.54003 9.15079e-29 
1209 1 10.4356 -2.55619 -11.8065 -3.54003 2.39062e-21 
1211 1 10.4356 -1.2781 -9.59281 -3.54003 5.99534e-29 
1224 1 10.4356 2.55619 -11.8065 -3.54003 2.39062e-21 
1225 1 10.4356 1.2781 -9.59281 -3.54003 5.99534e-29 
1227 1 10.4356 0 -11.8065 -3.54003 2.39037e-21 
1229 1 12.5227 -1.2781 -11.0686 -3.54003 1.57772e-29 
1230 1 12.5227 1.2781 -11.0686 -3.54003 1.57772e-29 
1311 1 12.5227 -2.55619 -8.85491 -3.54003 1.0413e-28 
1327 1 12.5227 2.55619 -8.85491 -3.54003 1.0413e-28 
1330 1 12.5227 0 -8.85491 -3.54003 2.8399e-29 
1233 1 14.6098 -1.2781 -12.5444 -3.54003 3.58605e-21 
1240 1 14.6098 1.2781 -12.5444 -3.54003 3.58605e-21 
1331 1 14.6098 0 -10.3307 -3.54003 0 
1334 1 14.6098 -2.55619 -10.3307 -3.54003 2.8399e-29 
1335 1 16.697 -2.55619 -11.8065 -3.54003 2.39037e-21 
1337 1 16.697 -1.2781 -9.59281 -3.54003 0 
1349 1 14.6098 2.55619 -10.3307 -3.54003 2.8399e-29 
1350 1 16.697 2.55619 -11.8065 -3.54003 2.39037e-21 
1351 1 16.697 1.2781 -9.59281 -3.54003 0 
1353 1 16.697 0 -11.8065 -3.54003 2.39037e-21 
1355 1 18.7841 -1.2781 -11.0686 -3.54003 1.00974e-28 
1356 1 18.7841 1.2781 -11.0686 -3.54003 1.00974e-28 
1359 1 20.8712 -1.2781 -12.5444 -3.54003 3.58605e-21 
1366 1 20.8712 1.2781 -12.5444 -3.54003 3.58605e-21 
1473 1 18.7841 -2.55619 -8.85491 -3.54003 1.00974e-28 
1489 1 18.7841 2.55619 -8.85491 -3.54003 1.00974e-28 
1492 1 18.7841 0 -8.85491 -3.54003 0 
1493 1 20.8712 0 -10.3307 -3.54003 1.13596e-28 
1496 1 20.8712 -2.55619 -10.3307 -3.54003 3.66031e-28 
1511 1 20.8712 2.55619 -10.3307 -3.54003 3.66031e-28 
1497 1 22.9583 -2.55619 -11.8065 -3.54003 2.39037e-21 
1499 1 22.9583 -1.2781 -9.59281 -3.54003 2.65057e-28 
1512 1 22.9583 2.55619 -11.8065 -3.54003 2.39037e-21 
1513 1 22.9583 1.2781 -9.59281 -3.54003 2.65057e-28 
1515 1 22.9583 0 -11.8065 -3.54003 2.39037e-21 
1517 1 25.0455 -1.2781 -11.0686 -3.54003 1.3884e-28 
1518 1 25.0455 1.2781 -11.0686 -3.54003 1.3884e-28 
1671 1 25.0455 -2.55619 -8.85491 -3.54003 1.51461e-28 
1687 1 25.0455 2.55619 -8.85491 -3.54003 1.51461e-28 
1690 1 25.0455 0 -8.85491 -3.54003 3.28166e-28 
1521 1 27.1326 -1.2781 -12.5444 -3.53995 3.58482e-21 
1528 1 27.1326 1.2781 -12.5444 -3.53995 3.58482e-21 
1691 1 27.1326 0 -10.3307 -3.53995 1.26218e-28 
1694 1 27.1326 -2.55619 -10.3307 -3.53995 3.66031e-28 
1695 1 29.2197 -2.55619 -11.8065 -3.53631 7.3537e-21 
1697 1 29.2197 -1.2781 -9.59281 -3.53631 4.96308e-21 
1704 1 27.1326 2.55619 -10.3307 -3.53995 3.66031e-28 
1705 1 29.2197 2.55619 -11.8065 -3.53631 7.3537e-21 
1706 1 29.2197 1.2781 -9.59281 -3.53631 4.96308e-21 
1708 1 29.2197 0 -11.8065 -3.53631 7.35337e-21 
421 1 -31.3068 6.39048 -11.0686 -3.54003 6.53411 
423 1 -31.3068 3.83429 -11.0686 -3.54003 6.53411 
425 1 -31.3068 5.11238 -8.85491 -3.54003 6.53411 
427 1 -29.2197 6.39048 -9.59281 -3.53631 4.78651e-22 
428 1 -29.2197 3.83429 -9.59281 -3.53631 1.26218e-28 
605 1 -29.2197 5.11238 -11.8065 -3.53631 2.48687e-21 
606 1 -27.1326 5.11238 -10.3307 -3.53995 9.57301e-23 
607 1 -27.1326 6.39048 -12.5444 -3.53995 4.06445e-21 
608 1 -27.1326 3.83429 -12.5444 -3.53995 3.58605e-21 
609 1 -25.0455 6.39048 -11.0686 -3.54003 4.7865e-22 
619 1 -25.0455 3.83429 -11.0686 -3.54003 1.00974e-28 
621 1 -25.0455 5.11238 -8.85491 -3.54003 9.57301e-23 
623 1 -22.9583 6.39048 -9.59281 -3.54003 4.7865e-22 
624 1 -22.9583 3.83429 -9.59281 -3.54003 1.3884e-28 
773 1 -22.9583 5.11238 -11.8065 -3.54003 2.4861e-21 
774 1 -20.8712 5.11238 -10.3307 -3.54003 9.57649e-23 
775 1 -20.8712 6.39048 -12.5444 -3.54003 4.06347e-21 
776 1 -20.8712 3.83429 -12.5444 -3.54003 3.58482e-21 
777 1 -18.7841 6.39048 -11.0686 -3.54003 4.78755e-22 
787 1 -18.7841 3.83429 -11.0686 -3.54003 1.3884e-28 
789 1 -18.7841 5.11238 -8.85491 -3.54003 9.57303e-23 
791 1 -16.697 6.39048 -9.59281 -3.54003 4.78546e-22 
792 1 -16.697 3.83429 -9.59281 -3.54003 1.7986e-28 
905 1 -16.697 5.11238 -11.8065 -3.54003 2.48561e-21 
906 1 -14.6098 5.11238 -10.3307 -3.54003 9.56954e-23 
907 1 -14.6098 6.39048 -12.5444 -3.54003 4.06431e-21 
908 1 -14.6098 3.83429 -12.5444 -3.54003 3.58605e-21 
909 1 -12.5227 6.39048 -11.0686 -3.54003 4.78477e-22 
919 1 -12.5227 3.83429 -11.0686 -3.54003 5.36425e-29 
921 1 -12.5227 5.11238 -8.85491 -3.54003 9.56953e-23 
923 1 -10.4356 6.39048 -9.59281 -3.54003 4.78477e-22 
924 1 -10.4356 3.83429 -9.59281 -3.54003 1.64083e-28 
1001 1 -10.4356 5.11238 -11.8065 -3.54003 2.48607e-21 
1002 1 -8.34848 5.11238 -10.3307 -3.54003 9.56954e-23 
1003 1 -8.34848 6.39048 -12.5444 -3.54003 4.06477e-21 
1004 1 -8.34848 3.83429 -12.5444 -3.54003 3.58629e-21 
1005 1 -6.26136 6.39048 -11.0686 -3.54003 4.7865e-22 
1015 1 -6.26136 3.83429 -11.0686 -3.54003 3.15544e-29 
1017 1 -6.26136 5.11238 -8.85491 -3.54003 9.57649e-23 
1019 1 -4.17424 6.39048 -9.59281 -3.53995 4.78685e-22 
1020 1 -4.17424 3.83429 -9.59281 -3.53995 3.47099e-29 
1061 1 -4.17424 5.11238 -11.8065 -3.53995 2.48589e-21 
1062 1 -2.08712 5.11238 -10.3307 -3.53631 9.57302e-23 
1063 1 -2.08712 6.39048 -12.5444 -3.53631 4.06473e-21 
1064 1 -2.08712 3.83429 -12.5444 -3.53631 3.5858e-21 
1093 1 -8.88178e-16 3.83429 -11.0686 -3.54003 6.53411 
1094 1 0 6.39048 -11.0686 -3.54003 6.53411 
1097 1 2.08712 3.83429 -12.5444 -3.53631 3.5858e-21 
1098 1 2.08712 6.39048 -12.5444 -3.53631 4.06473e-21 
1129 1 0 5.11238 -8.85491 -3.54003 6.53411 
1130 1 2.08712 5.11238 -10.3307 -3.53631 9.57302e-23 
1136 1 4.17424 3.83429 -9.59281 -3.53995 3.47099e-29 
1144 1 4.17424 6.39048 -9.59281 -3.53995 4.78685e-22 
1145 1 4.17424 5.11238 -11.8065 -3.53995 2.48589e-21 
1147 1 6.26136 3.83429 -11.0686 -3.54003 3.15544e-29 
1148 1 6.26136 6.39048 -11.0686 -3.54003 4.7865e-22 
1151 1 8.34848 3.83429 -12.5444 -3.54003 3.58629e-21 
1152 1 8.34848 6.39048 -12.5444 -3.54003 4.06477e-21 
1219 1 6.26136 5.11238 -8.85491 -3.54003 9.57649e-23 
1220 1 8.34848 5.11238 -10.3307 -3.54003 9.56954e-23 
1226 1 10.4356 3.83429 -9.59281 -3.54003 1.64083e-28 
1234 1 10.4356 6.39048 -9.59281 -3.54003 4.78477e-22 
1235 1 10.4356 5.11238 -11.8065 -3.54003 2.48607e-21 
1237 1 12.5227 3.83429 -11.0686 -3.54003 5.36425e-29 
1238 1 12.5227 6.39048 -11.0686 -3.54003 4.78477e-22 
1345 1 12.5227 5.11238 -8.85491 -3.54003 9.56953e-23 
1241 1 14.6098 3.83429 -12.5444 -3.54003 3.58605e-21 
1242 1 14.6098 6.39048 -12.5444 -3.54003 4.06431e-21 
1346 1 14.6098 5.11238 -10.3307 -3.54003 9.56954e-23 
1352 1 16.697 3.83429 -9.59281 -3.54003 1.7986e-28 
1360 1 16.697 6.39048 -9.59281 -3.54003 4.78546e-22 
1361 1 16.697 5.11238 -11.8065 -3.54003 2.48561e-21 
1363 1 18.7841 3.83429 -11.0686 -3.54003 1.3884e-28 
1364 1 18.7841 6.39048 -11.0686 -3.54003 4.78755e-22 
1367 1 20.8712 3.83429 -12.5444 -3.54003 3.58482e-21 
1368 1 20.8712 6.39048 -12.5444 -3.54003 4.06347e-21 
1507 1 18.7841 5.11238 -8.85491 -3.54003 9.57303e-23 
1508 1 20.8712 5.11238 -10.3307 -3.54003 9.57649e-23 
1514 1 22.9583 3.83429 -9.59281 -3.54003 1.3884e-28 
1522 1 22.9583 6.39048 -9.59281 -3.54003 4.7865e-22 
1523 1 22.9583 5.11238 -11.8065 -3.54003 2.4861e-21 
1525 1 25.0455 3.83429 -11.0686 -3.54003 1.00974e-28 
1526 1 25.0455 6.39048 -11.0686 -3.54003 4.7865e-22 
1700 1 25.0455 5.11238 -8.85491 -3.54003 9.57301e-23 
1529 1 27.1326 3.83429 -12.5444 -3.53995 3.58605e-21 
1530 1 27.1326 6.39048 -12.5444 -3.53995 4.06445e-21 
1701 1 27.1326 5.11238 -10.3307 -3.53995 9.57301e-23 
1707 1 29.2197 3.83429 -9.59281 -3.53631 4.96308e-21 
1709 1 29.2197 6.39048 -9.59281 -3.53631 5.44116e-21 
1710 1 29.2197 5.11238 -11.8065 -3.53631 7.44996e-21 
281 1 -31.3068 -5.11238 -4.42745 -3.54003 6.53411 
282 1 -31.3068 -3.83429 -6.64118 -3.54003 6.53411 
283 1 -31.3068 -6.39048 -6.64118 -3.54003 6.53411 
287 1 -29.2197 -3.83429 -5.16536 -3.53631 2.77679e-28 
301 1 -31.3068 -7.66857 -4.42745 -3.54003 6.53411 
303 1 -29.2197 -6.39048 -5.16536 -3.53631 9.57301e-23 
449 1 -29.2197 -5.11238 -7.37909 -3.53631 3.28166e-28 
455 1 -27.1326 -3.83429 -8.117 -3.53995 2.01948e-28 
469 1 -29.2197 -7.66857 -7.37909 -3.53631 4.7865e-22 
470 1 -27.1326 -7.66857 -5.90327 -3.53995 4.78651e-22 
471 1 -27.1326 -6.39048 -8.117 -3.53995 9.57304e-23 
472 1 -27.1326 -5.11238 -5.90327 -3.53995 3.15544e-28 
473 1 -25.0455 -5.11238 -4.42745 -3.54003 3.78653e-28 
474 1 -25.0455 -3.83429 -6.64118 -3.54003 2.20881e-28 
475 1 -25.0455 -6.39048 -6.64118 -3.54003 9.57301e-23 
479 1 -22.9583 -3.83429 -5.16536 -3.54003 1.64083e-28 
493 1 -25.0455 -7.66857 -4.42745 -3.54003 4.78651e-22 
495 1 -22.9583 -6.39048 -5.16536 -3.54003 9.57651e-23 
653 1 -22.9583 -5.11238 -7.37909 -3.54003 1.29373e-28 
673 1 -22.9583 -7.66857 -7.37909 -3.54003 4.7865e-22 
659 1 -20.8712 -3.83429 -8.117 -3.54003 2.65057e-28 
674 1 -20.8712 -7.66857 -5.90327 -3.54003 4.78755e-22 
675 1 -20.8712 -6.39048 -8.117 -3.54003 9.57651e-23 
676 1 -20.8712 -5.11238 -5.90327 -3.54003 2.61902e-28 
677 1 -18.7841 -5.11238 -4.42745 -3.54003 2.52435e-28 
678 1 -18.7841 -3.83429 -6.64118 -3.54003 1.70394e-28 
679 1 -18.7841 -6.39048 -6.64118 -3.54003 9.56954e-23 
697 1 -18.7841 -7.66857 -4.42745 -3.54003 4.78477e-22 
683 1 -16.697 -3.83429 -5.16536 -3.54003 2.20881e-29 
699 1 -16.697 -6.39048 -5.16536 -3.54003 9.56955e-23 
821 1 -16.697 -5.11238 -7.37909 -3.54003 2.90301e-28 
827 1 -14.6098 -3.83429 -8.117 -3.54003 2.05104e-28 
841 1 -16.697 -7.66857 -7.37909 -3.54003 4.78477e-22 
842 1 -14.6098 -7.66857 -5.90327 -3.54003 4.78477e-22 
843 1 -14.6098 -6.39048 -8.117 -3.54003 9.56954e-23 
844 1 -14.6098 -5.11238 -5.90327 -3.54003 4.10208e-29 
845 1 -12.5227 -5.11238 -4.42745 -3.54003 5.04871e-29 
846 1 -12.5227 -3.83429 -6.64118 -3.54003 9.46633e-29 
847 1 -12.5227 -6.39048 -6.64118 -3.54003 9.56954e-23 
851 1 -10.4356 -3.83429 -5.16536 -3.54003 4.41762e-29 
865 1 -12.5227 -7.66857 -4.42745 -3.54003 4.78581e-22 
867 1 -10.4356 -6.39048 -5.16536 -3.54003 9.57301e-23 
953 1 -10.4356 -5.11238 -7.37909 -3.54003 5.04871e-29 
972 1 -10.4356 -7.66857 -7.37909 -3.54003 4.78581e-22 
959 1 -8.34848 -3.83429 -8.117 -3.54003 9.15079e-29 
973 1 -8.34848 -7.66857 -5.90327 -3.54003 4.7865e-22 
974 1 -8.34848 -6.39048 -8.117 -3.54003 9.57301e-23 
975 1 -8.34848 -5.11238 -5.90327 -3.54003 7.25752e-29 
976 1 -6.26136 -5.11238 -4.42745 -3.54003 5.36425e-29 
977 1 -6.26136 -3.83429 -6.64118 -3.54003 5.36425e-29 
978 1 -6.26136 -6.39048 -6.64118 -3.54003 9.57648e-23 
988 1 -6.26136 -7.66857 -4.42745 -3.54003 4.78581e-22 
982 1 -4.17424 -3.83429 -5.16536 -3.53995 1.89327e-29 
990 1 -4.17424 -6.39048 -5.16536 -3.53995 9.56953e-23 
1045 1 -4.17424 -5.11238 -7.37909 -3.53995 2.52435e-29 
1051 1 -2.08712 -3.83429 -8.117 -3.53631 5.52203e-29 
1053 1 -4.17424 -7.66857 -7.37909 -3.53995 4.78581e-22 
1054 1 -2.08712 -7.66857 -5.90327 -3.53631 4.78476e-22 
1055 1 -2.08712 -6.39048 -8.117 -3.53631 9.56954e-23 
1056 1 -2.08712 -5.11238 -5.90327 -3.53631 2.05104e-29 
1100 1 -4.44089e-16 -6.39048 -6.64118 -3.54003 6.53411 
1102 1 0 -3.83429 -6.64118 -3.54003 6.53411 
1106 1 2.08712 -6.39048 -8.117 -3.53631 9.56954e-23 
1107 1 2.08712 -3.83429 -8.117 -3.53631 5.52203e-29 
1153 1 4.44089e-16 -5.11238 -4.42745 -3.54003 6.53411 
1156 1 0 -7.66857 -4.42745 -3.54003 6.53411 
1157 1 2.08712 -7.66857 -5.90327 -3.53631 4.78476e-22 
1166 1 2.08712 -5.11238 -5.90327 -3.53631 2.05104e-29 
1167 1 4.17424 -5.11238 -7.37909 -3.53995 2.52435e-29 
1168 1 4.17424 -6.39048 -5.16536 -3.53995 9.56953e-23 
1169 1 4.17424 -3.83429 -5.16536 -3.53995 1.89327e-29 
1170 1 4.17424 -7.66857 -7.37909 -3.53995 4.78581e-22 
1172 1 6.26136 -6.39048 -6.64118 -3.54003 9.57648e-23 
1186 1 6.26136 -3.83429 -6.64118 -3.54003 5.36425e-29 
1190 1 8.34848 -6.39048 -8.117 -3.54003 9.57301e-23 
1191 1 8.34848 -3.83429 -8.117 -3.54003 9.15079e-29 
1267 1 6.26136 -5.11238 -4.42745 -3.54003 5.36425e-29 
1270 1 6.26136 -7.66857 -4.42745 -3.54003 4.78581e-22 
1271 1 8.34848 -7.66857 -5.90327 -3.54003 4.7865e-22 
1290 1 8.34848 -5.11238 -5.90327 -3.54003 7.25752e-29 
1291 1 10.4356 -5.11238 -7.37909 -3.54003 5.04871e-29 
1292 1 10.4356 -6.39048 -5.16536 -3.54003 9.57301e-23 
1293 1 10.4356 -3.83429 -5.16536 -3.54003 4.41762e-29 
1294 1 10.4356 -7.66857 -7.37909 -3.54003 4.78581e-22 
1296 1 12.5227 -6.39048 -6.64118 -3.54003 9.56954e-23 
1312 1 12.5227 -3.83429 -6.64118 -3.54003 9.46633e-29 
1429 1 12.5227 -5.11238 -4.42745 -3.54003 5.04871e-29 
1432 1 12.5227 -7.66857 -4.42745 -3.54003 4.78581e-22 
1316 1 14.6098 -6.39048 -8.117 -3.54003 9.56954e-23 
1317 1 14.6098 -3.83429 -8.117 -3.54003 2.05104e-28 
1433 1 14.6098 -7.66857 -5.90327 -3.54003 4.78477e-22 
1452 1 14.6098 -5.11238 -5.90327 -3.54003 4.10208e-29 
1453 1 16.697 -5.11238 -7.37909 -3.54003 2.90301e-28 
1454 1 16.697 -6.39048 -5.16536 -3.54003 9.56955e-23 
1455 1 16.697 -3.83429 -5.16536 -3.54003 2.20881e-29 
1456 1 16.697 -7.66857 -7.37909 -3.54003 4.78477e-22 
1458 1 18.7841 -6.39048 -6.64118 -3.54003 9.56954e-23 
1474 1 18.7841 -3.83429 -6.64118 -3.54003 1.70394e-28 
1478 1 20.8712 -6.39048 -8.117 -3.54003 9.57651e-23 
1479 1 20.8712 -3.83429 -8.117 -3.54003 2.65057e-28 
1627 1 18.7841 -5.11238 -4.42745 -3.54003 2.52435e-28 
1630 1 18.7841 -7.66857 -4.42745 -3.54003 4.78477e-22 
1631 1 20.8712 -7.66857 -5.90327 -3.54003 4.78755e-22 
1650 1 20.8712 -5.11238 -5.90327 -3.54003 2.61902e-28 
1651 1 22.9583 -5.11238 -7.37909 -3.54003 1.29373e-28 
1652 1 22.9583 -6.39048 -5.16536 -3.54003 9.57651e-23 
1653 1 22.9583 -3.83429 -5.16536 -3.54003 1.64083e-28 
1654 1 22.9583 -7.66857 -7.37909 -3.54003 4.7865e-22 
1656 1 25.0455 -6.39048 -6.64118 -3.54003 9.57301e-23 
1672 1 25.0455 -3.83429 -6.64118 -3.54003 2.20881e-28 
1825 1 25.0455 -5.11238 -4.42745 -3.54003 3.78653e-28 
1828 1 25.0455 -7.66857 -4.42745 -3.54003 4.78651e-22 
1676 1 27.1326 -6.39048 -8.117 -3.53995 9.57304e-23 
1677 1 27.1326 -3.83429 -8.117 -3.53995 2.01948e-28 
1829 1 27.1326 -7.66857 -5.90327 -3.53995 4.78651e-22 
1848 1 27.1326 -5.11238 -5.90327 -3.53995 3.15544e-28 
1849 1 29.2197 -5.11238 -7.37909 -3.53631 4.96366e-21 
1850 1 29.2197 -6.39048 -5.16536 -3.53631 5.06112e-21 
1851 1 29.2197 -3.83429 -5.16536 -3.53631 4.96424e-21 
1852 1 29.2197 -7.66857 -7.37909 -3.53631 5.44462e-21 
269 1 -31.3068 0 -4.42745 -3.54003 6.53411 
270 1 -31.3068 1.2781 -6.64118 -3.54003 6.53411 
271 1 -31.3068 -1.2781 -6.64118 -3.54003 6.53411 
272 1 -31.3068 2.55619 -4.42745 -3.54003 6.53411 
275 1 -29.2197 1.2781 -5.16536 -3.53631 4.41762e-28 
284 1 -31.3068 -2.55619 -4.42745 -3.54003 6.53411 
286 1 -29.2197 -1.2781 -5.16536 -3.53631 4.41762e-28 
434 1 -29.2197 0 -7.37909 -3.53631 3.40788e-28 
437 1 -29.2197 2.55619 -7.37909 -3.53631 9.59255e-28 
438 1 -27.1326 2.55619 -5.90327 -3.53995 3.91275e-28 
440 1 -27.1326 1.2781 -8.117 -3.53995 1.3884e-28 
452 1 -29.2197 -2.55619 -7.37909 -3.53631 9.59255e-28 
453 1 -27.1326 -2.55619 -5.90327 -3.53995 3.91275e-28 
454 1 -27.1326 -1.2781 -8.117 -3.53995 1.3884e-28 
456 1 -27.1326 0 -5.90327 -3.53995 9.37167e-28 
457 1 -25.0455 0 -4.42745 -3.54003 3.31322e-28 
458 1 -25.0455 1.2781 -6.64118 -3.54003 1.54617e-28 
459 1 -25.0455 -1.2781 -6.64118 -3.54003 1.54617e-28 
460 1 -25.0455 2.55619 -4.42745 -3.54003 9.40322e-28 
463 1 -22.9583 1.2781 -5.16536 -3.54003 1.00974e-28 
476 1 -25.0455 -2.55619 -4.42745 -3.54003 9.40322e-28 
478 1 -22.9583 -1.2781 -5.16536 -3.54003 1.00974e-28 
637 1 -22.9583 0 -7.37909 -3.54003 1.29373e-28 
640 1 -22.9583 2.55619 -7.37909 -3.54003 3.84964e-28 
656 1 -22.9583 -2.55619 -7.37909 -3.54003 3.84964e-28 
641 1 -20.8712 2.55619 -5.90327 -3.54003 1.19907e-28 
643 1 -20.8712 1.2781 -8.117 -3.54003 1.51461e-28 
657 1 -20.8712 -2.55619 -5.90327 -3.54003 1.19907e-28 
658 1 -20.8712 -1.2781 -8.117 -3.54003 1.51461e-28 
660 1 -20.8712 0 -5.90327 -3.54003 1.26218e-29 
661 1 -18.7841 0 -4.42745 -3.54003 1.26218e-29 
662 1 -18.7841 1.2781 -6.64118 -3.54003 1.57772e-29 
663 1 -18.7841 -1.2781 -6.64118 -3.54003 1.57772e-29 
664 1 -18.7841 2.55619 -4.42745 -3.54003 7.25752e-29 
680 1 -18.7841 -2.55619 -4.42745 -3.54003 7.25752e-29 
667 1 -16.697 1.2781 -5.16536 -3.54003 6.62643e-29 
682 1 -16.697 -1.2781 -5.16536 -3.54003 6.62643e-29 
805 1 -16.697 0 -7.37909 -3.54003 0 
808 1 -16.697 2.55619 -7.37909 -3.54003 9.46633e-30 
809 1 -14.6098 2.55619 -5.90327 -3.54003 1.13596e-28 
811 1 -14.6098 1.2781 -8.117 -3.54003 4.10208e-29 
824 1 -16.697 -2.55619 -7.37909 -3.54003 9.46633e-30 
825 1 -14.6098 -2.55619 -5.90327 -3.54003 1.13596e-28 
826 1 -14.6098 -1.2781 -8.117 -3.54003 4.10208e-29 
828 1 -14.6098 0 -5.90327 -3.54003 1.89327e-29 
829 1 -12.5227 0 -4.42745 -3.54003 4.41762e-29 
830 1 -12.5227 1.2781 -6.64118 -3.54003 9.78188e-29 
831 1 -12.5227 -1.2781 -6.64118 -3.54003 9.78188e-29 
832 1 -12.5227 2.55619 -4.42745 -3.54003 5.99534e-29 
835 1 -10.4356 1.2781 -5.16536 -3.54003 3.47099e-29 
848 1 -12.5227 -2.55619 -4.42745 -3.54003 5.99534e-29 
850 1 -10.4356 -1.2781 -5.16536 -3.54003 3.47099e-29 
937 1 -10.4356 0 -7.37909 -3.54003 2.8399e-29 
940 1 -10.4356 2.55619 -7.37909 -3.54003 5.36425e-29 
956 1 -10.4356 -2.55619 -7.37909 -3.54003 5.36425e-29 
941 1 -8.34848 2.55619 -5.90327 -3.54003 6.7842e-29 
943 1 -8.34848 1.2781 -8.117 -3.54003 6.62643e-29 
957 1 -8.34848 -2.55619 -5.90327 -3.54003 6.7842e-29 
958 1 -8.34848 -1.2781 -8.117 -3.54003 6.62643e-29 
960 1 -8.34848 0 -5.90327 -3.54003 8.83524e-29 
961 1 -6.26136 0 -4.42745 -3.54003 3.86542e-29 
962 1 -6.26136 1.2781 -6.64118 -3.54003 4.49651e-29 
963 1 -6.26136 -1.2781 -6.64118 -3.54003 4.49651e-29 
964 1 -6.26136 2.55619 -4.42745 -3.54003 5.36425e-29 
979 1 -6.26136 -2.55619 -4.42745 -3.54003 5.36425e-29 
967 1 -4.17424 1.2781 -5.16536 -3.53995 1.71577e-29 
981 1 -4.17424 -1.2781 -5.16536 -3.53995 1.71577e-29 
1033 1 -4.17424 0 -7.37909 -3.53995 5.44314e-29 
1036 1 -4.17424 2.55619 -7.37909 -3.53995 6.31089e-29 
1037 1 -2.08712 2.55619 -5.90327 -3.53631 1.26218e-29 
1039 1 -2.08712 1.2781 -8.117 -3.53631 4.31901e-29 
1048 1 -4.17424 -2.55619 -7.37909 -3.53995 6.31089e-29 
1049 1 -2.08712 -2.55619 -5.90327 -3.53631 1.26218e-29 
1050 1 -2.08712 -1.2781 -8.117 -3.53631 4.31901e-29 
1052 1 -2.08712 0 -5.90327 -3.53631 1.99187e-29 
1103 1 -4.44089e-16 -1.2781 -6.64118 -3.54003 6.53411 
1112 1 -4.44089e-16 1.2781 -6.64118 -3.54003 6.53411 