ITEM: TIMESTEP
9
ITEM: NUMBER OF ATOMS
2160
ITEM: BOX BOUNDS pp pp pp
-3.1306818346827800e+01 3.1306818346827800e+01
-7.6685730419729996e+00 7.6685730419729996e+00
-1.3282358130224500e+01 1.3282358130224500e+01
ITEM: ATOMS id type x y z c_eng c_csym 
432 1 -31.3068 -3.83429 -11.0686 -3.54035 6.53411 
446 1 -31.3068 -7.66857 -8.85491 -3.54035 6.53411 
447 1 -31.3068 -6.39048 -11.0686 -3.54035 6.53411 
448 1 -31.3068 -5.11238 -8.85491 -3.54035 6.53411 
450 1 -29.2158 -3.83429 -9.59281 -3.53622 7.60761e-05 
451 1 -29.2158 -6.39048 -9.59281 -3.53622 7.60761e-05 
627 1 -29.2158 -7.66857 -11.8065 -3.53622 7.60761e-05 
628 1 -29.2158 -5.11238 -11.8065 -3.53622 7.60761e-05 
629 1 -27.1299 -5.11238 -10.3307 -3.5397 1.3293e-06 
630 1 -27.1299 -3.83429 -12.5444 -3.5397 1.3293e-06 
631 1 -27.1299 -6.39048 -12.5444 -3.5397 1.3293e-06 
649 1 -27.1299 -7.66857 -10.3307 -3.5397 1.3293e-06 
635 1 -25.0433 -3.83429 -11.0686 -3.54011 5.18178e-09 
650 1 -25.0433 -7.66857 -8.85491 -3.54011 5.18178e-09 
651 1 -25.0433 -6.39048 -11.0686 -3.54011 5.18178e-09 
652 1 -25.0433 -5.11238 -8.85491 -3.54011 5.18178e-09 
654 1 -22.9567 -3.83429 -9.59281 -3.54007 6.60968e-12 
655 1 -22.9567 -6.39048 -9.59281 -3.54007 6.60968e-12 
795 1 -22.9567 -7.66857 -11.8065 -3.54007 6.60968e-12 
796 1 -22.9567 -5.11238 -11.8065 -3.54007 6.60968e-12 
797 1 -20.87 -5.11238 -10.3307 -3.54007 1.73315e-16 
798 1 -20.87 -3.83429 -12.5444 -3.54007 1.73311e-16 
799 1 -20.87 -6.39048 -12.5444 -3.54007 1.73311e-16 
803 1 -18.7834 -3.83429 -11.0686 -3.54007 3.18655e-12 
817 1 -20.87 -7.66857 -10.3307 -3.54007 1.73316e-16 
818 1 -18.7834 -7.66857 -8.85491 -3.54007 3.18655e-12 
819 1 -18.7834 -6.39048 -11.0686 -3.54007 3.18655e-12 
820 1 -18.7834 -5.11238 -8.85491 -3.54007 3.18655e-12 
822 1 -16.6967 -3.83429 -9.59281 -3.54007 4.52123e-13 
823 1 -16.6967 -6.39048 -9.59281 -3.54007 4.52123e-13 
927 1 -16.6967 -7.66857 -11.8065 -3.54007 4.52122e-13 
928 1 -16.6967 -5.11238 -11.8065 -3.54007 4.52122e-13 
929 1 -14.6101 -5.11238 -10.3307 -3.54007 4.52121e-13 
930 1 -14.6101 -3.83429 -12.5444 -3.54007 4.5212e-13 
931 1 -14.6101 -6.39048 -12.5444 -3.54007 4.5212e-13 
949 1 -14.6101 -7.66857 -10.3307 -3.54007 4.52121e-13 
935 1 -12.5234 -3.83429 -11.0686 -3.54007 3.18655e-12 
950 1 -12.5234 -7.66857 -8.85491 -3.54007 3.18655e-12 
951 1 -12.5234 -6.39048 -11.0686 -3.54007 3.18655e-12 
952 1 -12.5234 -5.11238 -8.85491 -3.54007 3.18655e-12 
954 1 -10.4368 -3.83429 -9.59281 -3.54007 1.73363e-16 
955 1 -10.4368 -6.39048 -9.59281 -3.54007 1.73363e-16 
1023 1 -10.4368 -7.66857 -11.8065 -3.54007 1.7335e-16 
1024 1 -10.4368 -5.11238 -11.8065 -3.54007 1.7335e-16 
1025 1 -8.35016 -5.11238 -10.3307 -3.54007 6.60967e-12 
1026 1 -8.35016 -3.83429 -12.5444 -3.54007 6.60967e-12 
1027 1 -8.35016 -6.39048 -12.5444 -3.54007 6.60967e-12 
1031 1 -6.26351 -3.83429 -11.0686 -3.54011 5.18178e-09 
1041 1 -8.35016 -7.66857 -10.3307 -3.54007 6.60967e-12 
1042 1 -6.26351 -7.66857 -8.85491 -3.54011 5.18178e-09 
1043 1 -6.26351 -6.39048 -11.0686 -3.54011 5.18178e-09 
1044 1 -6.26351 -5.11238 -8.85491 -3.54011 5.18178e-09 
1046 1 -4.17691 -3.83429 -9.59281 -3.5397 1.3293e-06 
1047 1 -4.17691 -6.39048 -9.59281 -3.5397 1.3293e-06 
1074 1 -4.17691 -7.66857 -11.8065 -3.5397 1.3293e-06 
1075 1 -4.17691 -5.11238 -11.8065 -3.5397 1.3293e-06 
1076 1 -2.09097 -5.11238 -10.3307 -3.53622 7.60761e-05 
1077 1 -2.09097 -3.83429 -12.5444 -3.53622 7.60761e-05 
1078 1 -2.09097 -6.39048 -12.5444 -3.53622 7.60761e-05 
1080 1 -2.09097 -7.66857 -10.3307 -3.53622 7.60761e-05 
1082 1 1.94674e-16 -6.39048 -11.0686 -3.54035 6.53411 
1083 1 9.97558e-17 -3.83429 -11.0686 -3.54035 6.53411 
1085 1 2.09097 -6.39048 -12.5444 -3.53622 7.60761e-05 
1090 1 2.09097 -3.83429 -12.5444 -3.53622 7.60761e-05 
1099 1 4.2067e-16 -7.66857 -8.85491 -3.54035 6.53411 
1104 1 -2.36722e-16 -5.11238 -8.85491 -3.54035 6.53411 
1105 1 2.09097 -5.11238 -10.3307 -3.53622 7.60761e-05 
1108 1 2.09097 -7.66857 -10.3307 -3.53622 7.60761e-05 
1109 1 4.17691 -7.66857 -11.8065 -3.5397 1.3293e-06 
1110 1 4.17691 -6.39048 -9.59281 -3.5397 1.3293e-06 
1120 1 4.17691 -3.83429 -9.59281 -3.5397 1.3293e-06 
1122 1 4.17691 -5.11238 -11.8065 -3.5397 1.3293e-06 
1124 1 6.26351 -6.39048 -11.0686 -3.54011 5.18178e-09 
1125 1 6.26351 -3.83429 -11.0686 -3.54011 5.18178e-09 
1127 1 8.35016 -6.39048 -12.5444 -3.54007 6.60967e-12 
1142 1 8.35016 -3.83429 -12.5444 -3.54007 6.60967e-12 
1171 1 6.26351 -7.66857 -8.85491 -3.54011 5.18178e-09 
1188 1 6.26351 -5.11238 -8.85491 -3.54011 5.18178e-09 
1189 1 8.35016 -5.11238 -10.3307 -3.54007 6.60967e-12 
1192 1 8.35016 -7.66857 -10.3307 -3.54007 6.60967e-12 
1193 1 10.4368 -7.66857 -11.8065 -3.54007 1.73365e-16 
1194 1 10.4368 -6.39048 -9.59281 -3.54007 1.73378e-16 
1210 1 10.4368 -3.83429 -9.59281 -3.54007 1.73378e-16 
1212 1 10.4368 -5.11238 -11.8065 -3.54007 1.73365e-16 
1214 1 12.5234 -6.39048 -11.0686 -3.54007 3.18655e-12 
1215 1 12.5234 -3.83429 -11.0686 -3.54007 3.18655e-12 
1295 1 12.5234 -7.66857 -8.85491 -3.54007 3.18655e-12 
1314 1 12.5234 -5.11238 -8.85491 -3.54007 3.18655e-12 
1217 1 14.6101 -6.39048 -12.5444 -3.54007 4.52119e-13 
1232 1 14.6101 -3.83429 -12.5444 -3.54007 4.52119e-13 
1315 1 14.6101 -5.11238 -10.3307 -3.54007 4.5212e-13 
1318 1 14.6101 -7.66857 -10.3307 -3.54007 4.5212e-13 
1319 1 16.6967 -7.66857 -11.8065 -3.54007 4.52121e-13 
1320 1 16.6967 -6.39048 -9.59281 -3.54007 4.52122e-13 
1336 1 16.6967 -3.83429 -9.59281 -3.54007 4.52122e-13 
1338 1 16.6967 -5.11238 -11.8065 -3.54007 4.52121e-13 
1340 1 18.7834 -6.39048 -11.0686 -3.54007 3.18655e-12 
1341 1 18.7834 -3.83429 -11.0686 -3.54007 3.18655e-12 
1343 1 20.87 -6.39048 -12.5444 -3.54007 1.73325e-16 
1358 1 20.87 -3.83429 -12.5444 -3.54007 1.73324e-16 
1457 1 18.7834 -7.66857 -8.85491 -3.54007 3.18656e-12 
1476 1 18.7834 -5.11238 -8.85491 -3.54007 3.18656e-12 
1477 1 20.87 -5.11238 -10.3307 -3.54007 1.73329e-16 
1480 1 20.87 -7.66857 -10.3307 -3.54007 1.73329e-16 
1481 1 22.9567 -7.66857 -11.8065 -3.54007 6.60967e-12 
1482 1 22.9567 -6.39048 -9.59281 -3.54007 6.60968e-12 
1498 1 22.9567 -3.83429 -9.59281 -3.54007 6.60968e-12 
1500 1 22.9567 -5.11238 -11.8065 -3.54007 6.60967e-12 
1502 1 25.0433 -6.39048 -11.0686 -3.54011 5.18178e-09 
1503 1 25.0433 -3.83429 -11.0686 -3.54011 5.18178e-09 
1655 1 25.0433 -7.66857 -8.85491 -3.54011 5.18178e-09 
1674 1 25.0433 -5.11238 -8.85491 -3.54011 5.18178e-09 
1505 1 27.1299 -6.39048 -12.5444 -3.5397 1.3293e-06 
1520 1 27.1299 -3.83429 -12.5444 -3.5397 1.3293e-06 
1675 1 27.1299 -5.11238 -10.3307 -3.5397 1.3293e-06 
1678 1 27.1299 -7.66857 -10.3307 -3.5397 1.3293e-06 
1679 1 29.2158 -7.66857 -11.8065 -3.53622 7.60761e-05 
1680 1 29.2158 -6.39048 -9.59281 -3.53622 7.60761e-05 
1696 1 29.2158 -3.83429 -9.59281 -3.53622 7.60761e-05 
1698 1 29.2158 -5.11238 -11.8065 -3.53622 7.60761e-05 
422 1 -31.3068 2.55619 -8.85491 -3.54035 6.53411 
424 1 -31.3068 1.2781 -11.0686 -3.54035 6.53411 
430 1 -31.3068 -2.55619 -8.85491 -3.54035 6.53411 
431 1 -31.3068 -1.2781 -11.0686 -3.54035 6.53411 
433 1 -31.3068 4.27176e-13 -8.85491 -3.54035 6.53411 
435 1 -29.2158 1.2781 -9.59281 -3.53622 7.60761e-05 
436 1 -29.2158 -1.2781 -9.59281 -3.53622 7.60761e-05 
604 1 -29.2158 2.55619 -11.8065 -3.53622 7.60761e-05 
612 1 -29.2158 -2.55619 -11.8065 -3.53622 7.60761e-05 
613 1 -29.2158 4.28904e-13 -11.8065 -3.53622 7.60761e-05 
614 1 -27.1299 4.23598e-13 -10.3307 -3.5397 1.3293e-06 
615 1 -27.1299 1.2781 -12.5444 -3.5397 1.3293e-06 
616 1 -27.1299 -1.2781 -12.5444 -3.5397 1.3293e-06 
617 1 -27.1299 2.55619 -10.3307 -3.5397 1.3293e-06 
632 1 -27.1299 -2.55619 -10.3307 -3.5397 1.3293e-06 
618 1 -25.0433 2.55619 -8.85491 -3.54011 5.18178e-09 
620 1 -25.0433 1.2781 -11.0686 -3.54011 5.18178e-09 
633 1 -25.0433 -2.55619 -8.85491 -3.54011 5.18178e-09 
634 1 -25.0433 -1.2781 -11.0686 -3.54011 5.18178e-09 
636 1 -25.0433 4.22377e-13 -8.85491 -3.54011 5.18178e-09 
638 1 -22.9567 1.2781 -9.59281 -3.54007 6.60968e-12 
639 1 -22.9567 -1.2781 -9.59281 -3.54007 6.60968e-12 
772 1 -22.9567 2.55619 -11.8065 -3.54007 6.60968e-12 
780 1 -22.9567 -2.55619 -11.8065 -3.54007 6.60968e-12 
781 1 -22.9567 4.26517e-13 -11.8065 -3.54007 6.60968e-12 
782 1 -20.87 4.26801e-13 -10.3307 -3.54007 1.73315e-16 
783 1 -20.87 1.2781 -12.5444 -3.54007 1.73311e-16 
784 1 -20.87 -1.2781 -12.5444 -3.54007 1.73311e-16 
785 1 -20.87 2.55619 -10.3307 -3.54007 1.73316e-16 
786 1 -18.7834 2.55619 -8.85491 -3.54007 3.18655e-12 
788 1 -18.7834 1.2781 -11.0686 -3.54007 3.18655e-12 
800 1 -20.87 -2.55619 -10.3307 -3.54007 1.73315e-16 
801 1 -18.7834 -2.55619 -8.85491 -3.54007 3.18655e-12 
802 1 -18.7834 -1.2781 -11.0686 -3.54007 3.18655e-12 
804 1 -18.7834 4.26455e-13 -8.85491 -3.54007 3.18655e-12 
806 1 -16.6967 1.2781 -9.59281 -3.54007 4.52123e-13 
807 1 -16.6967 -1.2781 -9.59281 -3.54007 4.52123e-13 
904 1 -16.6967 2.55619 -11.8065 -3.54007 4.52122e-13 
912 1 -16.6967 -2.55619 -11.8065 -3.54007 4.52122e-13 
913 1 -16.6967 4.25105e-13 -11.8065 -3.54007 4.52122e-13 
914 1 -14.6101 4.26287e-13 -10.3307 -3.54007 4.52121e-13 
915 1 -14.6101 1.2781 -12.5444 -3.54007 4.5212e-13 
916 1 -14.6101 -1.2781 -12.5444 -3.54007 4.5212e-13 
917 1 -14.6101 2.55619 -10.3307 -3.54007 4.52121e-13 
932 1 -14.6101 -2.55619 -10.3307 -3.54007 4.52121e-13 
918 1 -12.5234 2.55619 -8.85491 -3.54007 3.18655e-12 
920 1 -12.5234 1.2781 -11.0686 -3.54007 3.18655e-12 
933 1 -12.5234 -2.55619 -8.85491 -3.54007 3.18655e-12 
934 1 -12.5234 -1.2781 -11.0686 -3.54007 3.18655e-12 
936 1 -12.5234 4.26469e-13 -8.85491 -3.54007 3.18655e-12 
938 1 -10.4368 1.2781 -9.59281 -3.54007 1.73363e-16 
939 1 -10.4368 -1.2781 -9.59281 -3.54007 1.73363e-16 
1000 1 -10.4368 2.55619 -11.8065 -3.54007 1.73349e-16 
1008 1 -10.4368 -2.55619 -11.8065 -3.54007 1.73349e-16 
1009 1 -10.4368 4.26962e-13 -11.8065 -3.54007 1.73349e-16 
1010 1 -8.35016 4.26287e-13 -10.3307 -3.54007 6.60967e-12 
1011 1 -8.35016 1.2781 -12.5444 -3.54007 6.60967e-12 
1012 1 -8.35016 -1.2781 -12.5444 -3.54007 6.60967e-12 
1013 1 -8.35016 2.55619 -10.3307 -3.54007 6.60967e-12 
1014 1 -6.26351 2.55619 -8.85491 -3.54011 5.18178e-09 
1016 1 -6.26351 1.2781 -11.0686 -3.54011 5.18178e-09 
1028 1 -8.35016 -2.55619 -10.3307 -3.54007 6.60967e-12 
1029 1 -6.26351 -2.55619 -8.85491 -3.54011 5.18178e-09 
1030 1 -6.26351 -1.2781 -11.0686 -3.54011 5.18178e-09 
1032 1 -6.26351 4.21952e-13 -8.85491 -3.54011 5.18178e-09 
1034 1 -4.17691 1.2781 -9.59281 -3.5397 1.3293e-06 
1035 1 -4.17691 -1.2781 -9.59281 -3.5397 1.3293e-06 
1060 1 -4.17691 2.55619 -11.8065 -3.5397 1.3293e-06 
1067 1 -4.17691 -2.55619 -11.8065 -3.5397 1.3293e-06 
1068 1 -4.17691 4.24231e-13 -11.8065 -3.5397 1.3293e-06 
1069 1 -2.09097 4.29014e-13 -10.3307 -3.53622 7.60761e-05 
1070 1 -2.09097 1.2781 -12.5444 -3.53622 7.60761e-05 
1071 1 -2.09097 -1.2781 -12.5444 -3.53622 7.60761e-05 
1072 1 -2.09097 2.55619 -10.3307 -3.53622 7.60761e-05 
1079 1 -2.09097 -2.55619 -10.3307 -3.53622 7.60761e-05 
1087 1 -5.27925e-16 -1.2781 -11.0686 -3.54035 6.53411 
1088 1 1.98931e-16 1.2781 -11.0686 -3.54035 6.53411 
1091 1 2.09097 -1.2781 -12.5444 -3.53622 7.60761e-05 
1096 1 2.09097 1.2781 -12.5444 -3.53622 7.60761e-05 
1101 1 3.59395e-16 -2.55619 -8.85491 -3.54035 6.53411 
1111 1 1.83088e-16 2.55619 -8.85491 -3.54035 6.53411 
1114 1 2.36203e-16 4.26983e-13 -8.85491 -3.54035 6.53411 
1115 1 2.09097 4.29323e-13 -10.3307 -3.53622 7.60761e-05 
1118 1 2.09097 -2.55619 -10.3307 -3.53622 7.60761e-05 
1119 1 4.17691 -2.55619 -11.8065 -3.5397 1.3293e-06 
1121 1 4.17691 -1.2781 -9.59281 -3.5397 1.3293e-06 
1133 1 2.09097 2.55619 -10.3307 -3.53622 7.60761e-05 
1134 1 4.17691 2.55619 -11.8065 -3.5397 1.3293e-06 
1135 1 4.17691 1.2781 -9.59281 -3.5397 1.3293e-06 
1137 1 4.17691 4.24521e-13 -11.8065 -3.5397 1.3293e-06 
1139 1 6.26351 -1.2781 -11.0686 -3.54011 5.18178e-09 
1140 1 6.26351 1.2781 -11.0686 -3.54011 5.18178e-09 
1143 1 8.35016 -1.2781 -12.5444 -3.54007 6.60967e-12 
1150 1 8.35016 1.2781 -12.5444 -3.54007 6.60967e-12 
1185 1 6.26351 -2.55619 -8.85491 -3.54011 5.18178e-09 
1201 1 6.26351 2.55619 -8.85491 -3.54011 5.18178e-09 
1204 1 6.26351 4.22044e-13 -8.85491 -3.54011 5.18178e-09 
1205 1 8.35016 4.26551e-13 -10.3307 -3.54007 6.60967e-12 
1208 1 8.35016 -2.55619 -10.3307 -3.54007 6.60967e-12 
1223 1 8.35016 2.55619 -10.3307 -3.54007 6.60967e-12 
1209 1 10.4368 -2.55619 -11.8065 -3.54007 1.73364e-16 
1211 1 10.4368 -1.2781 -9.59281 -3.54007 1.73378e-16 
1224 1 10.4368 2.55619 -11.8065 -3.54007 1.73364e-16 
1225 1 10.4368 1.2781 -9.59281 -3.54007 1.73378e-16 
1227 1 10.4368 4.27271e-13 -11.8065 -3.54007 1.73364e-16 
1229 1 12.5234 -1.2781 -11.0686 -3.54007 3.18655e-12 
1230 1 12.5234 1.2781 -11.0686 -3.54007 3.18655e-12 
1311 1 12.5234 -2.55619 -8.85491 -3.54007 3.18655e-12 
1327 1 12.5234 2.55619 -8.85491 -3.54007 3.18655e-12 
1330 1 12.5234 4.26237e-13 -8.85491 -3.54007 3.18655e-12 
1233 1 14.6101 -1.2781 -12.5444 -3.54007 4.52119e-13 
1240 1 14.6101 1.2781 -12.5444 -3.54007 4.52119e-13 
1331 1 14.6101 4.25573e-13 -10.3307 -3.54007 4.5212e-13 
1334 1 14.6101 -2.55619 -10.3307 -3.54007 4.5212e-13 
1335 1 16.6967 -2.55619 -11.8065 -3.54007 4.52121e-13 
1337 1 16.6967 -1.2781 -9.59281 -3.54007 4.52122e-13 
1349 1 14.6101 2.55619 -10.3307 -3.54007 4.5212e-13 
1350 1 16.6967 2.55619 -11.8065 -3.54007 4.52121e-13 
1351 1 16.6967 1.2781 -9.59281 -3.54007 4.52122e-13 
1353 1 16.6967 4.2567e-13 -11.8065 -3.54007 4.52121e-13 
1355 1 18.7834 -1.2781 -11.0686 -3.54007 3.18655e-12 
1356 1 18.7834 1.2781 -11.0686 -3.54007 3.18655e-12 
1359 1 20.87 -1.2781 -12.5444 -3.54007 1.73325e-16 
1366 1 20.87 1.2781 -12.5444 -3.54007 1.73324e-16 
1473 1 18.7834 -2.55619 -8.85491 -3.54007 3.18656e-12 
1489 1 18.7834 2.55619 -8.85491 -3.54007 3.18656e-12 
1492 1 18.7834 4.26662e-13 -8.85491 -3.54007 3.18656e-12 
1493 1 20.87 4.27413e-13 -10.3307 -3.54007 1.73329e-16 
1496 1 20.87 -2.55619 -10.3307 -3.54007 1.73329e-16 
1511 1 20.87 2.55619 -10.3307 -3.54007 1.73329e-16 
1497 1 22.9567 -2.55619 -11.8065 -3.54007 6.60967e-12 
1499 1 22.9567 -1.2781 -9.59281 -3.54007 6.60968e-12 
1512 1 22.9567 2.55619 -11.8065 -3.54007 6.60967e-12 
1513 1 22.9567 1.2781 -9.59281 -3.54007 6.60968e-12 
1515 1 22.9567 4.26592e-13 -11.8065 -3.54007 6.60967e-12 
1517 1 25.0433 -1.2781 -11.0686 -3.54011 5.18178e-09 
1518 1 25.0433 1.2781 -11.0686 -3.54011 5.18178e-09 
1671 1 25.0433 -2.55619 -8.85491 -3.54011 5.18178e-09 
1687 1 25.0433 2.55619 -8.85491 -3.54011 5.18178e-09 
1690 1 25.0433 4.22315e-13 -8.85491 -3.54011 5.18178e-09 
1521 1 27.1299 -1.2781 -12.5444 -3.5397 1.3293e-06 
1528 1 27.1299 1.2781 -12.5444 -3.5397 1.3293e-06 
1691 1 27.1299 4.25228e-13 -10.3307 -3.5397 1.3293e-06 
1694 1 27.1299 -2.55619 -10.3307 -3.5397 1.3293e-06 
1695 1 29.2158 -2.55619 -11.8065 -3.53622 7.60761e-05 
1697 1 29.2158 -1.2781 -9.59281 -3.53622 7.60761e-05 
1704 1 27.1299 2.55619 -10.3307 -3.5397 1.3293e-06 
1705 1 29.2158 2.55619 -11.8065 -3.53622 7.60761e-05 
1706 1 29.2158 1.2781 -9.59281 -3.53622 7.60761e-05 
1708 1 29.2158 4.28093e-13 -11.8065 -3.53622 7.60761e-05 
421 1 -31.3068 6.39048 -11.0686 -3.54035 6.53411 
423 1 -31.3068 3.83429 -11.0686 -3.54035 6.53411 
425 1 -31.3068 5.11238 -8.85491 -3.54035 6.53411 
427 1 -29.2158 6.39048 -9.59281 -3.53622 7.60761e-05 
428 1 -29.2158 3.83429 -9.59281 -3.53622 7.60761e-05 
605 1 -29.2158 5.11238 -11.8065 -3.53622 7.60761e-05 
606 1 -27.1299 5.11238 -10.3307 -3.5397 1.3293e-06 
607 1 -27.1299 6.39048 -12.5444 -3.5397 1.3293e-06 
608 1 -27.1299 3.83429 -12.5444 -3.5397 1.3293e-06 
609 1 -25.0433 6.39048 -11.0686 -3.54011 5.18178e-09 
619 1 -25.0433 3.83429 -11.0686 -3.54011 5.18178e-09 
621 1 -25.0433 5.11238 -8.85491 -3.54011 5.18178e-09 
623 1 -22.9567 6.39048 -9.59281 -3.54007 6.60968e-12 
624 1 -22.9567 3.83429 -9.59281 -3.54007 6.60968e-12 
773 1 -22.9567 5.11238 -11.8065 -3.54007 6.60968e-12 
774 1 -20.87 5.11238 -10.3307 -3.54007 1.73316e-16 
775 1 -20.87 6.39048 -12.5444 -3.54007 1.73311e-16 
776 1 -20.87 3.83429 -12.5444 -3.54007 1.73311e-16 
777 1 -18.7834 6.39048 -11.0686 -3.54007 3.18655e-12 
787 1 -18.7834 3.83429 -11.0686 -3.54007 3.18655e-12 
789 1 -18.7834 5.11238 -8.85491 -3.54007 3.18655e-12 
791 1 -16.6967 6.39048 -9.59281 -3.54007 4.52123e-13 
792 1 -16.6967 3.83429 -9.59281 -3.54007 4.52123e-13 
905 1 -16.6967 5.11238 -11.8065 -3.54007 4.52122e-13 
906 1 -14.6101 5.11238 -10.3307 -3.54007 4.52121e-13 
907 1 -14.6101 6.39048 -12.5444 -3.54007 4.5212e-13 
908 1 -14.6101 3.83429 -12.5444 -3.54007 4.5212e-13 
909 1 -12.5234 6.39048 -11.0686 -3.54007 3.18655e-12 
919 1 -12.5234 3.83429 -11.0686 -3.54007 3.18655e-12 
921 1 -12.5234 5.11238 -8.85491 -3.54007 3.18655e-12 
923 1 -10.4368 6.39048 -9.59281 -3.54007 1.73363e-16 
924 1 -10.4368 3.83429 -9.59281 -3.54007 1.73363e-16 
1001 1 -10.4368 5.11238 -11.8065 -3.54007 1.73349e-16 
1002 1 -8.35016 5.11238 -10.3307 -3.54007 6.60967e-12 
1003 1 -8.35016 6.39048 -12.5444 -3.54007 6.60967e-12 
1004 1 -8.35016 3.83429 -12.5444 -3.54007 6.60967e-12 
1005 1 -6.26351 6.39048 -11.0686 -3.54011 5.18178e-09 
1015 1 -6.26351 3.83429 -11.0686 -3.54011 5.18178e-09 
1017 1 -6.26351 5.11238 -8.85491 -3.54011 5.18178e-09 
1019 1 -4.17691 6.39048 -9.59281 -3.5397 1.3293e-06 
1020 1 -4.17691 3.83429 -9.59281 -3.5397 1.3293e-06 
1061 1 -4.17691 5.11238 -11.8065 -3.5397 1.3293e-06 
1062 1 -2.09097 5.11238 -10.3307 -3.53622 7.60761e-05 
1063 1 -2.09097 6.39048 -12.5444 -3.53622 7.60761e-05 
1064 1 -2.09097 3.83429 -12.5444 -3.53622 7.60761e-05 
1093 1 -1.64488e-16 3.83429 -11.0686 -3.54035 6.53411 
1094 1 5.11924e-16 6.39048 -11.0686 -3.54035 6.53411 
1097 1 2.09097 3.83429 -12.5444 -3.53622 7.60761e-05 
1098 1 2.09097 6.39048 -12.5444 -3.53622 7.60761e-05 
1129 1 -1.07526e-16 5.11238 -8.85491 -3.54035 6.53411 
1130 1 2.09097 5.11238 -10.3307 -3.53622 7.60761e-05 
1136 1 4.17691 3.83429 -9.59281 -3.5397 1.3293e-06 
1144 1 4.17691 6.39048 -9.59281 -3.5397 1.3293e-06 
1145 1 4.17691 5.11238 -11.8065 -3.5397 1.3293e-06 
1147 1 6.26351 3.83429 -11.0686 -3.54011 5.18178e-09 
1148 1 6.26351 6.39048 -11.0686 -3.54011 5.18178e-09 
1151 1 8.35016 3.83429 -12.5444 -3.54007 6.60967e-12 
1152 1 8.35016 6.39048 -12.5444 -3.54007 6.60967e-12 
1219 1 6.26351 5.11238 -8.85491 -3.54011 5.18178e-09 
1220 1 8.35016 5.11238 -10.3307 -3.54007 6.60967e-12 
1226 1 10.4368 3.83429 -9.59281 -3.54007 1.73378e-16 
1234 1 10.4368 6.39048 -9.59281 -3.54007 1.73378e-16 
1235 1 10.4368 5.11238 -11.8065 -3.54007 1.73365e-16 
1237 1 12.5234 3.83429 -11.0686 -3.54007 3.18655e-12 
1238 1 12.5234 6.39048 -11.0686 -3.54007 3.18655e-12 
1345 1 12.5234 5.11238 -8.85491 -3.54007 3.18655e-12 
1241 1 14.6101 3.83429 -12.5444 -3.54007 4.52119e-13 
1242 1 14.6101 6.39048 -12.5444 -3.54007 4.52119e-13 
1346 1 14.6101 5.11238 -10.3307 -3.54007 4.5212e-13 
1352 1 16.6967 3.83429 -9.59281 -3.54007 4.52122e-13 
1360 1 16.6967 6.39048 -9.59281 -3.54007 4.52122e-13 
1361 1 16.6967 5.11238 -11.8065 -3.54007 4.52121e-13 
1363 1 18.7834 3.83429 -11.0686 -3.54007 3.18655e-12 
1364 1 18.7834 6.39048 -11.0686 -3.54007 3.18655e-12 
1367 1 20.87 3.83429 -12.5444 -3.54007 1.73325e-16 
1368 1 20.87 6.39048 -12.5444 -3.54007 1.73325e-16 
1507 1 18.7834 5.11238 -8.85491 -3.54007 3.18656e-12 
1508 1 20.87 5.11238 -10.3307 -3.54007 1.73329e-16 
1514 1 22.9567 3.83429 -9.59281 -3.54007 6.60968e-12 
1522 1 22.9567 6.39048 -9.59281 -3.54007 6.60968e-12 
1523 1 22.9567 5.11238 -11.8065 -3.54007 6.60967e-12 
1525 1 25.0433 3.83429 -11.0686 -3.54011 5.18178e-09 
1526 1 25.0433 6.39048 -11.0686 -3.54011 5.18178e-09 
1700 1 25.0433 5.11238 -8.85491 -3.54011 5.18178e-09 
1529 1 27.1299 3.83429 -12.5444 -3.5397 1.3293e-06 
1530 1 27.1299 6.39048 -12.5444 -3.5397 1.3293e-06 
1701 1 27.1299 5.11238 -10.3307 -3.5397 1.3293e-06 
1707 1 29.2158 3.83429 -9.59281 -3.53622 7.60761e-05 
1709 1 29.2158 6.39048 -9.59281 -3.53622 7.60761e-05 
1710 1 29.2158 5.11238 -11.8065 -3.53622 7.60761e-05 
281 1 -31.3068 -5.11238 -4.42745 -3.54035 6.53411 
282 1 -31.3068 -3.83429 -6.64118 -3.54035 6.53411 
283 1 -31.3068 -6.39048 -6.64118 -3.54035 6.53411 
287 1 -29.2158 -3.83429 -5.16536 -3.53622 7.60761e-05 
301 1 -31.3068 -7.66857 -4.42745 -3.54035 6.53411 
303 1 -29.2158 -6.39048 -5.16536 -3.53622 7.60761e-05 
449 1 -29.2158 -5.11238 -7.37909 -3.53622 7.60761e-05 
455 1 -27.1299 -3.83429 -8.117 -3.5397 1.3293e-06 
469 1 -29.2158 -7.66857 -7.37909 -3.53622 7.60761e-05 
470 1 -27.1299 -7.66857 -5.90327 -3.5397 1.3293e-06 
471 1 -27.1299 -6.39048 -8.117 -3.5397 1.3293e-06 
472 1 -27.1299 -5.11238 -5.90327 -3.5397 1.3293e-06 
473 1 -25.0433 -5.11238 -4.42745 -3.54011 5.18178e-09 
474 1 -25.0433 -3.83429 -6.64118 -3.54011 5.18178e-09 
475 1 -25.0433 -6.39048 -6.64118 -3.54011 5.18178e-09 
479 1 -22.9567 -3.83429 -5.16536 -3.54007 6.60968e-12 
493 1 -25.0433 -7.66857 -4.42745 -3.54011 5.18178e-09 
495 1 -22.9567 -6.39048 -5.16536 -3.54007 6.60968e-12 
653 1 -22.9567 -5.11238 -7.37909 -3.54007 6.60968e-12 
673 1 -22.9567 -7.66857 -7.37909 -3.54007 6.60968e-12 
659 1 -20.87 -3.83429 -8.117 -3.54007 1.73316e-16 
674 1 -20.87 -7.66857 -5.90327 -3.54007 1.7331e-16 
675 1 -20.87 -6.39048 -8.117 -3.54007 1.73316e-16 
676 1 -20.87 -5.11238 -5.90327 -3.54007 1.7331e-16 
677 1 -18.7834 -5.11238 -4.42745 -3.54007 3.18655e-12 
678 1 -18.7834 -3.83429 -6.64118 -3.54007 3.18655e-12 
679 1 -18.7834 -6.39048 -6.64118 -3.54007 3.18655e-12 
697 1 -18.7834 -7.66857 -4.42745 -3.54007 3.18655e-12 
683 1 -16.6967 -3.83429 -5.16536 -3.54007 4.52122e-13 
699 1 -16.6967 -6.39048 -5.16536 -3.54007 4.52122e-13 
821 1 -16.6967 -5.11238 -7.37909 -3.54007 4.52122e-13 
827 1 -14.6101 -3.83429 -8.117 -3.54007 4.52121e-13 
841 1 -16.6967 -7.66857 -7.37909 -3.54007 4.52122e-13 
842 1 -14.6101 -7.66857 -5.90327 -3.54007 4.5212e-13 
843 1 -14.6101 -6.39048 -8.117 -3.54007 4.52121e-13 
844 1 -14.6101 -5.11238 -5.90327 -3.54007 4.5212e-13 
845 1 -12.5234 -5.11238 -4.42745 -3.54007 3.18655e-12 
846 1 -12.5234 -3.83429 -6.64118 -3.54007 3.18655e-12 
847 1 -12.5234 -6.39048 -6.64118 -3.54007 3.18655e-12 
851 1 -10.4368 -3.83429 -5.16536 -3.54007 1.73358e-16 
865 1 -12.5234 -7.66857 -4.42745 -3.54007 3.18655e-12 
867 1 -10.4368 -6.39048 -5.16536 -3.54007 1.73358e-16 
953 1 -10.4368 -5.11238 -7.37909 -3.54007 1.73359e-16 
972 1 -10.4368 -7.66857 -7.37909 -3.54007 1.73359e-16 
959 1 -8.35016 -3.83429 -8.117 -3.54007 6.60967e-12 
973 1 -8.35016 -7.66857 -5.90327 -3.54007 6.60967e-12 
974 1 -8.35016 -6.39048 -8.117 -3.54007 6.60967e-12 
975 1 -8.35016 -5.11238 -5.90327 -3.54007 6.60967e-12 
976 1 -6.26351 -5.11238 -4.42745 -3.54011 5.18178e-09 
977 1 -6.26351 -3.83429 -6.64118 -3.54011 5.18178e-09 
978 1 -6.26351 -6.39048 -6.64118 -3.54011 5.18178e-09 
988 1 -6.26351 -7.66857 -4.42745 -3.54011 5.18178e-09 
982 1 -4.17691 -3.83429 -5.16536 -3.5397 1.3293e-06 
990 1 -4.17691 -6.39048 -5.16536 -3.5397 1.3293e-06 
1045 1 -4.17691 -5.11238 -7.37909 -3.5397 1.3293e-06 
1051 1 -2.09097 -3.83429 -8.117 -3.53622 7.60761e-05 
1053 1 -4.17691 -7.66857 -7.37909 -3.5397 1.3293e-06 
1054 1 -2.09097 -7.66857 -5.90327 -3.53622 7.60761e-05 
1055 1 -2.09097 -6.39048 -8.117 -3.53622 7.60761e-05 
1056 1 -2.09097 -5.11238 -5.90327 -3.53622 7.60761e-05 
1100 1 5.09556e-17 -6.39048 -6.64118 -3.54035 6.53411 
1102 1 3.72721e-16 -3.83429 -6.64118 -3.54035 6.53411 
1106 1 2.09097 -6.39048 -8.117 -3.53622 7.60761e-05 
1107 1 2.09097 -3.83429 -8.117 -3.53622 7.60761e-05 
1153 1 -7.71443e-17 -5.11238 -4.42745 -3.54035 6.53411 
1156 1 1.71226e-16 -7.66857 -4.42745 -3.54035 6.53411 
1157 1 2.09097 -7.66857 -5.90327 -3.53622 7.60761e-05 
1166 1 2.09097 -5.11238 -5.90327 -3.53622 7.60761e-05 
1167 1 4.17691 -5.11238 -7.37909 -3.5397 1.3293e-06 
1168 1 4.17691 -6.39048 -5.16536 -3.5397 1.3293e-06 
1169 1 4.17691 -3.83429 -5.16536 -3.5397 1.3293e-06 
1170 1 4.17691 -7.66857 -7.37909 -3.5397 1.3293e-06 
1172 1 6.26351 -6.39048 -6.64118 -3.54011 5.18178e-09 
1186 1 6.26351 -3.83429 -6.64118 -3.54011 5.18178e-09 
1190 1 8.35016 -6.39048 -8.117 -3.54007 6.60967e-12 
1191 1 8.35016 -3.83429 -8.117 -3.54007 6.60967e-12 
1267 1 6.26351 -5.11238 -4.42745 -3.54011 5.18178e-09 
1270 1 6.26351 -7.66857 -4.42745 -3.54011 5.18178e-09 
1271 1 8.35016 -7.66857 -5.90327 -3.54007 6.60967e-12 
1290 1 8.35016 -5.11238 -5.90327 -3.54007 6.60967e-12 
1291 1 10.4368 -5.11238 -7.37909 -3.54007 1.73374e-16 
1292 1 10.4368 -6.39048 -5.16536 -3.54007 1.73373e-16 
1293 1 10.4368 -3.83429 -5.16536 -3.54007 1.73373e-16 
1294 1 10.4368 -7.66857 -7.37909 -3.54007 1.73374e-16 
1296 1 12.5234 -6.39048 -6.64118 -3.54007 3.18655e-12 
1312 1 12.5234 -3.83429 -6.64118 -3.54007 3.18655e-12 
1429 1 12.5234 -5.11238 -4.42745 -3.54007 3.18655e-12 
1432 1 12.5234 -7.66857 -4.42745 -3.54007 3.18655e-12 
1316 1 14.6101 -6.39048 -8.117 -3.54007 4.5212e-13 
1317 1 14.6101 -3.83429 -8.117 -3.54007 4.5212e-13 
1433 1 14.6101 -7.66857 -5.90327 -3.54007 4.52119e-13 
1452 1 14.6101 -5.11238 -5.90327 -3.54007 4.52119e-13 
1453 1 16.6967 -5.11238 -7.37909 -3.54007 4.52122e-13 
1454 1 16.6967 -6.39048 -5.16536 -3.54007 4.52122e-13 
1455 1 16.6967 -3.83429 -5.16536 -3.54007 4.52122e-13 
1456 1 16.6967 -7.66857 -7.37909 -3.54007 4.52122e-13 
1458 1 18.7834 -6.39048 -6.64118 -3.54007 3.18656e-12 
1474 1 18.7834 -3.83429 -6.64118 -3.54007 3.18656e-12 
1478 1 20.87 -6.39048 -8.117 -3.54007 1.73329e-16 
1479 1 20.87 -3.83429 -8.117 -3.54007 1.73329e-16 
1627 1 18.7834 -5.11238 -4.42745 -3.54007 3.18655e-12 
1630 1 18.7834 -7.66857 -4.42745 -3.54007 3.18655e-12 
1631 1 20.87 -7.66857 -5.90327 -3.54007 1.73323e-16 
1650 1 20.87 -5.11238 -5.90327 -3.54007 1.73323e-16 
1651 1 22.9567 -5.11238 -7.37909 -3.54007 6.60968e-12 
1652 1 22.9567 -6.39048 -5.16536 -3.54007 6.60968e-12 
1653 1 22.9567 -3.83429 -5.16536 -3.54007 6.60968e-12 
1654 1 22.9567 -7.66857 -7.37909 -3.54007 6.60968e-12 
1656 1 25.0433 -6.39048 -6.64118 -3.54011 5.18178e-09 
1672 1 25.0433 -3.83429 -6.64118 -3.54011 5.18178e-09 
1825 1 25.0433 -5.11238 -4.42745 -3.54011 5.18178e-09 
1828 1 25.0433 -7.66857 -4.42745 -3.54011 5.18178e-09 
1676 1 27.1299 -6.39048 -8.117 -3.5397 1.3293e-06 
1677 1 27.1299 -3.83429 -8.117 -3.5397 1.3293e-06 
1829 1 27.1299 -7.66857 -5.90327 -3.5397 1.3293e-06 
1848 1 27.1299 -5.11238 -5.90327 -3.5397 1.3293e-06 
1849 1 29.2158 -5.11238 -7.37909 -3.53622 7.60761e-05 
1850 1 29.2158 -6.39048 -5.16536 -3.53622 7.60761e-05 
1851 1 29.2158 -3.83429 -5.16536 -3.53622 7.60761e-05 
1852 1 29.2158 -7.66857 -7.37909 -3.53622 7.60761e-05 
269 1 -31.3068 4.26792e-13 -4.42745 -3.54035 6.53411 
270 1 -31.3068 1.2781 -6.64118 -3.54035 6.53411 
271 1 -31.3068 -1.2781 -6.64118 -3.54035 6.53411 
272 1 -31.3068 2.55619 -4.42745 -3.54035 6.53411 
275 1 -29.2158 1.2781 -5.16536 -3.53622 7.60761e-05 
284 1 -31.3068 -2.55619 -4.42745 -3.54035 6.53411 
286 1 -29.2158 -1.2781 -5.16536 -3.53622 7.60761e-05 
434 1 -29.2158 4.28915e-13 -7.37909 -3.53622 7.60761e-05 
437 1 -29.2158 2.55619 -7.37909 -3.53622 7.60761e-05 
438 1 -27.1299 2.55619 -5.90327 -3.5397 1.3293e-06 
440 1 -27.1299 1.2781 -8.117 -3.5397 1.3293e-06 
452 1 -29.2158 -2.55619 -7.37909 -3.53622 7.60761e-05 
453 1 -27.1299 -2.55619 -5.90327 -3.5397 1.3293e-06 
454 1 -27.1299 -1.2781 -8.117 -3.5397 1.3293e-06 
456 1 -27.1299 4.24234e-13 -5.90327 -3.5397 1.3293e-06 
457 1 -25.0433 4.22689e-13 -4.42745 -3.54011 5.18178e-09 
458 1 -25.0433 1.2781 -6.64118 -3.54011 5.18178e-09 
459 1 -25.0433 -1.2781 -6.64118 -3.54011 5.18178e-09 
460 1 -25.0433 2.55619 -4.42745 -3.54011 5.18178e-09 
463 1 -22.9567 1.2781 -5.16536 -3.54007 6.60968e-12 
476 1 -25.0433 -2.55619 -4.42745 -3.54011 5.18178e-09 
478 1 -22.9567 -1.2781 -5.16536 -3.54007 6.60968e-12 
637 1 -22.9567 4.26482e-13 -7.37909 -3.54007 6.60968e-12 
640 1 -22.9567 2.55619 -7.37909 -3.54007 6.60968e-12 
656 1 -22.9567 -2.55619 -7.37909 -3.54007 6.60968e-12 
641 1 -20.87 2.55619 -5.90327 -3.54007 1.7331e-16 
643 1 -20.87 1.2781 -8.117 -3.54007 1.73315e-16 
657 1 -20.87 -2.55619 -5.90327 -3.54007 1.73309e-16 
658 1 -20.87 -1.2781 -8.117 -3.54007 1.73315e-16 
660 1 -20.87 4.27117e-13 -5.90327 -3.54007 1.73309e-16 
661 1 -18.7834 4.26679e-13 -4.42745 -3.54007 3.18655e-12 
662 1 -18.7834 1.2781 -6.64118 -3.54007 3.18655e-12 
663 1 -18.7834 -1.2781 -6.64118 -3.54007 3.18655e-12 
664 1 -18.7834 2.55619 -4.42745 -3.54007 3.18655e-12 
680 1 -18.7834 -2.55619 -4.42745 -3.54007 3.18655e-12 
667 1 -16.6967 1.2781 -5.16536 -3.54007 4.52122e-13 
682 1 -16.6967 -1.2781 -5.16536 -3.54007 4.52122e-13 
805 1 -16.6967 4.25818e-13 -7.37909 -3.54007 4.52122e-13 
808 1 -16.6967 2.55619 -7.37909 -3.54007 4.52122e-13 
809 1 -14.6101 2.55619 -5.90327 -3.54007 4.5212e-13 
811 1 -14.6101 1.2781 -8.117 -3.54007 4.52121e-13 
824 1 -16.6967 -2.55619 -7.37909 -3.54007 4.52122e-13 
825 1 -14.6101 -2.55619 -5.90327 -3.54007 4.5212e-13 
826 1 -14.6101 -1.2781 -8.117 -3.54007 4.52121e-13 
828 1 -14.6101 4.25829e-13 -5.90327 -3.54007 4.5212e-13 
829 1 -12.5234 4.26586e-13 -4.42745 -3.54007 3.18655e-12 
830 1 -12.5234 1.2781 -6.64118 -3.54007 3.18655e-12 
831 1 -12.5234 -1.2781 -6.64118 -3.54007 3.18655e-12 
832 1 -12.5234 2.55619 -4.42745 -3.54007 3.18655e-12 
835 1 -10.4368 1.2781 -5.16536 -3.54007 1.73358e-16 
848 1 -12.5234 -2.55619 -4.42745 -3.54007 3.18655e-12 
850 1 -10.4368 -1.2781 -5.16536 -3.54007 1.73358e-16 
937 1 -10.4368 4.26801e-13 -7.37909 -3.54007 1.73359e-16 
940 1 -10.4368 2.55619 -7.37909 -3.54007 1.73359e-16 
956 1 -10.4368 -2.55619 -7.37909 -3.54007 1.73359e-16 
941 1 -8.35016 2.55619 -5.90327 -3.54007 6.60967e-12 
943 1 -8.35016 1.2781 -8.117 -3.54007 6.60967e-12 
957 1 -8.35016 -2.55619 -5.90327 -3.54007 6.60967e-12 
958 1 -8.35016 -1.2781 -8.117 -3.54007 6.60967e-12 
960 1 -8.35016 4.26042e-13 -5.90327 -3.54007 6.60967e-12 
961 1 -6.26351 4.22266e-13 -4.42745 -3.54011 5.18178e-09 
962 1 -6.26351 1.2781 -6.64118 -3.54011 5.18178e-09 
963 1 -6.26351 -1.2781 -6.64118 -3.54011 5.18178e-09 
964 1 -6.26351 2.55619 -4.42745 -3.54011 5.18178e-09 
979 1 -6.26351 -2.55619 -4.42745 -3.54011 5.18178e-09 
967 1 -4.17691 1.2781 -5.16536 -3.5397 1.3293e-06 
981 1 -4.17691 -1.2781 -5.16536 -3.5397 1.3293e-06 
1033 1 -4.17691 4.24442e-13 -7.37909 -3.5397 1.3293e-06 
1036 1 -4.17691 2.55619 -7.37909 -3.5397 1.3293e-06 