ITEM: TIMESTEP
50
ITEM: NUMBER OF ATOMS
2160
ITEM: BOX BOUNDS pp pp pp
-3.1181970840846148e+01 3.1181970840846148e+01
-7.6371318925009222e+00 7.6371318925009222e+00
-1.3227900461898832e+01 1.3227900461898832e+01
ITEM: ATOMS id type x y z c_eng c_csym 
432 1 -31.182 -3.81857 -11.0233 -3.54182 6.48064 
446 1 -31.182 -7.63713 -8.8186 -3.54182 6.48064 
447 1 -31.182 -6.36428 -11.0233 -3.54182 6.48064 
448 1 -31.182 -5.09142 -8.8186 -3.54182 6.48064 
450 1 -29.0993 -3.81857 -9.55348 -3.53741 7.54686e-05 
451 1 -29.0993 -6.36428 -9.55348 -3.53741 7.54686e-05 
627 1 -29.0993 -7.63713 -11.7581 -3.53741 7.54686e-05 
628 1 -29.0993 -5.09142 -11.7581 -3.53741 7.54686e-05 
629 1 -27.0217 -5.09142 -10.2884 -3.54087 1.31857e-06 
630 1 -27.0217 -3.81857 -12.493 -3.54087 1.31857e-06 
631 1 -27.0217 -6.36428 -12.493 -3.54087 1.31857e-06 
649 1 -27.0217 -7.63713 -10.2884 -3.54087 1.31857e-06 
635 1 -24.9434 -3.81857 -11.0233 -3.54133 5.14125e-09 
651 1 -24.9434 -6.36428 -11.0233 -3.54133 5.14125e-09 
654 1 -22.8651 -3.81857 -9.55348 -3.54129 6.55099e-12 
655 1 -22.8651 -6.36428 -9.55348 -3.54129 6.55099e-12 
795 1 -22.8651 -7.63713 -11.7581 -3.54129 6.55099e-12 
796 1 -22.8651 -5.09142 -11.7581 -3.54129 6.55099e-12 
797 1 -20.7868 -5.09142 -10.2884 -3.54129 1.61821e-16 
798 1 -20.7868 -3.81857 -12.493 -3.54129 1.61819e-16 
799 1 -20.7868 -6.36428 -12.493 -3.54129 1.61818e-16 
803 1 -18.7085 -3.81857 -11.0233 -3.54129 3.16032e-12 
817 1 -20.7868 -7.63713 -10.2884 -3.54129 1.6182e-16 
819 1 -18.7085 -6.36428 -11.0233 -3.54129 3.16032e-12 
822 1 -16.6301 -3.81857 -9.55348 -3.54129 4.48483e-13 
823 1 -16.6301 -6.36428 -9.55348 -3.54129 4.48483e-13 
927 1 -16.6301 -7.63713 -11.7581 -3.54129 4.48482e-13 
928 1 -16.6301 -5.09142 -11.7581 -3.54129 4.48482e-13 
929 1 -14.5518 -5.09142 -10.2884 -3.54129 4.48481e-13 
930 1 -14.5518 -3.81857 -12.493 -3.54129 4.4848e-13 
931 1 -14.5518 -6.36428 -12.493 -3.54129 4.4848e-13 
949 1 -14.5518 -7.63713 -10.2884 -3.54129 4.48481e-13 
935 1 -12.4735 -3.81857 -11.0233 -3.54129 3.16031e-12 
951 1 -12.4735 -6.36428 -11.0233 -3.54129 3.16031e-12 
954 1 -10.3952 -3.81857 -9.55348 -3.54129 1.61867e-16 
955 1 -10.3952 -6.36428 -9.55348 -3.54129 1.61867e-16 
1023 1 -10.3952 -7.63713 -11.7581 -3.54129 1.61853e-16 
1024 1 -10.3952 -5.09142 -11.7581 -3.54129 1.61853e-16 
1025 1 -8.31686 -5.09142 -10.2884 -3.54129 6.55099e-12 
1026 1 -8.31686 -3.81857 -12.493 -3.54129 6.55099e-12 
1027 1 -8.31686 -6.36428 -12.493 -3.54129 6.55099e-12 
1031 1 -6.23854 -3.81857 -11.0233 -3.54133 5.14125e-09 
1041 1 -8.31686 -7.63713 -10.2884 -3.54129 6.55099e-12 
1043 1 -6.23854 -6.36428 -11.0233 -3.54133 5.14125e-09 
1046 1 -4.16025 -3.81857 -9.55348 -3.54087 1.31857e-06 
1047 1 -4.16025 -6.36428 -9.55348 -3.54087 1.31857e-06 
1074 1 -4.16025 -7.63713 -11.7581 -3.54087 1.31857e-06 
1075 1 -4.16025 -5.09142 -11.7581 -3.54087 1.31857e-06 
1076 1 -2.08263 -5.09142 -10.2884 -3.53741 7.54686e-05 
1077 1 -2.08263 -3.81857 -12.493 -3.53741 7.54686e-05 
1078 1 -2.08263 -6.36428 -12.493 -3.53741 7.54686e-05 
1080 1 -2.08263 -7.63713 -10.2884 -3.53741 7.54686e-05 
1082 1 -4.61851e-14 -6.36428 -11.0233 -3.54182 6.48064 
1083 1 -4.61851e-14 -3.81857 -11.0233 -3.54182 6.48064 
1085 1 2.08263 -6.36428 -12.493 -3.53741 7.54686e-05 
1090 1 2.08263 -3.81857 -12.493 -3.53741 7.54686e-05 
1105 1 2.08263 -5.09142 -10.2884 -3.53741 7.54686e-05 
1108 1 2.08263 -7.63713 -10.2884 -3.53741 7.54686e-05 
1109 1 4.16025 -7.63713 -11.7581 -3.54087 1.31857e-06 
1110 1 4.16025 -6.36428 -9.55348 -3.54087 1.31857e-06 
1120 1 4.16025 -3.81857 -9.55348 -3.54087 1.31857e-06 
1122 1 4.16025 -5.09142 -11.7581 -3.54087 1.31857e-06 
1081 1 -4.61852e-14 -5.09142 -13.2279 -3.54182 6.48064 
1084 1 -4.61851e-14 -7.63713 -13.2279 -3.54182 6.48064 
1124 1 6.23854 -6.36428 -11.0233 -3.54133 5.14125e-09 
1125 1 6.23854 -3.81857 -11.0233 -3.54133 5.14125e-09 
1127 1 8.31686 -6.36428 -12.493 -3.54129 6.55099e-12 
1142 1 8.31686 -3.81857 -12.493 -3.54129 6.55099e-12 
1189 1 8.31686 -5.09142 -10.2884 -3.54129 6.55099e-12 
1192 1 8.31686 -7.63713 -10.2884 -3.54129 6.55098e-12 
1193 1 10.3952 -7.63713 -11.7581 -3.54129 1.61866e-16 
1194 1 10.3952 -6.36428 -9.55348 -3.54129 1.61875e-16 
1210 1 10.3952 -3.81857 -9.55348 -3.54129 1.61876e-16 
1212 1 10.3952 -5.09142 -11.7581 -3.54129 1.61865e-16 
1214 1 12.4735 -6.36428 -11.0233 -3.54129 3.16032e-12 
1215 1 12.4735 -3.81857 -11.0233 -3.54129 3.16032e-12 
1217 1 14.5518 -6.36428 -12.493 -3.54129 4.48479e-13 
1232 1 14.5518 -3.81857 -12.493 -3.54129 4.48479e-13 
1315 1 14.5518 -5.09142 -10.2884 -3.54129 4.4848e-13 
1318 1 14.5518 -7.63713 -10.2884 -3.54129 4.4848e-13 
1319 1 16.6301 -7.63713 -11.7581 -3.54129 4.48481e-13 
1320 1 16.6301 -6.36428 -9.55348 -3.54129 4.48482e-13 
1336 1 16.6301 -3.81857 -9.55348 -3.54129 4.48482e-13 
1338 1 16.6301 -5.09142 -11.7581 -3.54129 4.48481e-13 
1340 1 18.7085 -6.36428 -11.0233 -3.54129 3.16032e-12 
1341 1 18.7085 -3.81857 -11.0233 -3.54129 3.16032e-12 
1343 1 20.7868 -6.36428 -12.493 -3.54129 1.61831e-16 
1358 1 20.7868 -3.81857 -12.493 -3.54129 1.61831e-16 
1477 1 20.7868 -5.09142 -10.2884 -3.54129 1.61837e-16 
1480 1 20.7868 -7.63713 -10.2884 -3.54129 1.61836e-16 
1481 1 22.8651 -7.63713 -11.7581 -3.54129 6.55099e-12 
1482 1 22.8651 -6.36428 -9.55348 -3.54129 6.55099e-12 
1498 1 22.8651 -3.81857 -9.55348 -3.54129 6.55099e-12 
1500 1 22.8651 -5.09142 -11.7581 -3.54129 6.55099e-12 
1502 1 24.9434 -6.36428 -11.0233 -3.54133 5.14125e-09 
1503 1 24.9434 -3.81857 -11.0233 -3.54133 5.14125e-09 
1505 1 27.0217 -6.36428 -12.493 -3.54087 1.31857e-06 
1520 1 27.0217 -3.81857 -12.493 -3.54087 1.31857e-06 
1675 1 27.0217 -5.09142 -10.2884 -3.54087 1.31857e-06 
1678 1 27.0217 -7.63713 -10.2884 -3.54087 1.31857e-06 
1679 1 29.0993 -7.63713 -11.7581 -3.53741 7.54686e-05 
1680 1 29.0993 -6.36428 -9.55348 -3.53741 7.54686e-05 
1696 1 29.0993 -3.81857 -9.55348 -3.53741 7.54686e-05 
1698 1 29.0993 -5.09142 -11.7581 -3.53741 7.54686e-05 
424 1 -31.182 1.27286 -11.0233 -3.54182 6.48064 
430 1 -31.182 -2.54571 -8.8186 -3.54182 6.48064 
431 1 -31.182 -1.27286 -11.0233 -3.54182 6.48064 
433 1 -31.182 4.25437e-13 -8.8186 -3.54182 6.48064 
435 1 -29.0993 1.27286 -9.55348 -3.53741 7.54686e-05 
436 1 -29.0993 -1.27286 -9.55348 -3.53741 7.54686e-05 
612 1 -29.0993 -2.54571 -11.7581 -3.53741 7.54686e-05 
613 1 -29.0993 4.25437e-13 -11.7581 -3.53741 7.54686e-05 
614 1 -27.0217 4.15667e-13 -10.2884 -3.54087 1.31857e-06 
615 1 -27.0217 1.27286 -12.493 -3.54087 1.31857e-06 
616 1 -27.0217 -1.27286 -12.493 -3.54087 1.31857e-06 
632 1 -27.0217 -2.54571 -10.2884 -3.54087 1.31857e-06 
620 1 -24.9434 1.27286 -11.0233 -3.54133 5.14125e-09 
634 1 -24.9434 -1.27286 -11.0233 -3.54133 5.14125e-09 
638 1 -22.8651 1.27286 -9.55348 -3.54129 6.55099e-12 
639 1 -22.8651 -1.27286 -9.55348 -3.54129 6.55099e-12 
780 1 -22.8651 -2.54571 -11.7581 -3.54129 6.55099e-12 
781 1 -22.8651 4.1922e-13 -11.7581 -3.54129 6.55099e-12 
782 1 -20.7868 4.25437e-13 -10.2884 -3.54129 1.61821e-16 
783 1 -20.7868 1.27286 -12.493 -3.54129 1.61818e-16 
784 1 -20.7868 -1.27286 -12.493 -3.54129 1.61818e-16 
788 1 -18.7085 1.27286 -11.0233 -3.54129 3.16032e-12 
800 1 -20.7868 -2.54571 -10.2884 -3.54129 1.61822e-16 
802 1 -18.7085 -1.27286 -11.0233 -3.54129 3.16032e-12 
806 1 -16.6301 1.27286 -9.55348 -3.54129 4.48483e-13 
807 1 -16.6301 -1.27286 -9.55348 -3.54129 4.48483e-13 
912 1 -16.6301 -2.54571 -11.7581 -3.54129 4.48482e-13 
913 1 -16.6301 4.1922e-13 -11.7581 -3.54129 4.48482e-13 
914 1 -14.5518 4.1922e-13 -10.2884 -3.54129 4.48481e-13 
915 1 -14.5518 1.27286 -12.493 -3.54129 4.4848e-13 
916 1 -14.5518 -1.27286 -12.493 -3.54129 4.4848e-13 
932 1 -14.5518 -2.54571 -10.2884 -3.54129 4.48481e-13 
920 1 -12.4735 1.27286 -11.0233 -3.54129 3.16031e-12 
934 1 -12.4735 -1.27286 -11.0233 -3.54129 3.16031e-12 
938 1 -10.3952 1.27286 -9.55348 -3.54129 1.61867e-16 
939 1 -10.3952 -1.27286 -9.55348 -3.54129 1.61868e-16 
1008 1 -10.3952 -2.54571 -11.7581 -3.54129 1.61854e-16 
1009 1 -10.3952 4.25437e-13 -11.7581 -3.54129 1.61854e-16 
1010 1 -8.31686 4.1922e-13 -10.2884 -3.54129 6.55099e-12 
1011 1 -8.31686 1.27286 -12.493 -3.54129 6.55099e-12 
1012 1 -8.31686 -1.27286 -12.493 -3.54129 6.55099e-12 
1016 1 -6.23854 1.27286 -11.0233 -3.54133 5.14125e-09 
1028 1 -8.31686 -2.54571 -10.2884 -3.54129 6.55099e-12 
1030 1 -6.23854 -1.27286 -11.0233 -3.54133 5.14125e-09 
1034 1 -4.16025 1.27286 -9.55348 -3.54087 1.31857e-06 
1035 1 -4.16025 -1.27286 -9.55348 -3.54087 1.31857e-06 
1067 1 -4.16025 -2.54571 -11.7581 -3.54087 1.31857e-06 
1068 1 -4.16025 4.1922e-13 -11.7581 -3.54087 1.31857e-06 
1069 1 -2.08263 4.25437e-13 -10.2884 -3.53741 7.54686e-05 
1070 1 -2.08263 1.27286 -12.493 -3.53741 7.54686e-05 
1071 1 -2.08263 -1.27286 -12.493 -3.53741 7.54686e-05 
1079 1 -2.08263 -2.54571 -10.2884 -3.53741 7.54686e-05 
1087 1 -4.61851e-14 -1.27286 -11.0233 -3.54182 6.48064 
1088 1 -4.61851e-14 1.27286 -11.0233 -3.54182 6.48064 
1091 1 2.08263 -1.27286 -12.493 -3.53741 7.54686e-05 
1096 1 2.08263 1.27286 -12.493 -3.53741 7.54686e-05 
1115 1 2.08263 4.25437e-13 -10.2884 -3.53741 7.54686e-05 
1118 1 2.08263 -2.54571 -10.2884 -3.53741 7.54686e-05 
1119 1 4.16025 -2.54571 -11.7581 -3.54087 1.31857e-06 
1121 1 4.16025 -1.27286 -9.55348 -3.54087 1.31857e-06 
1135 1 4.16025 1.27286 -9.55348 -3.54087 1.31857e-06 
1137 1 4.16025 4.1922e-13 -11.7581 -3.54087 1.31857e-06 
1086 1 -4.61852e-14 4.25437e-13 -13.2279 -3.54182 6.48064 
1089 1 -4.61852e-14 -2.54571 -13.2279 -3.54182 6.48064 
1139 1 6.23854 -1.27286 -11.0233 -3.54133 5.14125e-09 
1140 1 6.23854 1.27286 -11.0233 -3.54133 5.14125e-09 
1143 1 8.31686 -1.27286 -12.493 -3.54129 6.55099e-12 
1150 1 8.31686 1.27286 -12.493 -3.54129 6.55099e-12 
1205 1 8.31686 4.1922e-13 -10.2884 -3.54129 6.55099e-12 
1208 1 8.31686 -2.54571 -10.2884 -3.54129 6.55099e-12 
1209 1 10.3952 -2.54571 -11.7581 -3.54129 1.61866e-16 
1211 1 10.3952 -1.27286 -9.55348 -3.54129 1.61877e-16 
1225 1 10.3952 1.27286 -9.55348 -3.54129 1.61877e-16 
1227 1 10.3952 4.25437e-13 -11.7581 -3.54129 1.61866e-16 
1229 1 12.4735 -1.27286 -11.0233 -3.54129 3.16032e-12 
1230 1 12.4735 1.27286 -11.0233 -3.54129 3.16032e-12 
1233 1 14.5518 -1.27286 -12.493 -3.54129 4.48479e-13 
1240 1 14.5518 1.27286 -12.493 -3.54129 4.48479e-13 
1331 1 14.5518 4.1922e-13 -10.2884 -3.54129 4.4848e-13 
1334 1 14.5518 -2.54571 -10.2884 -3.54129 4.4848e-13 
1335 1 16.6301 -2.54571 -11.7581 -3.54129 4.48481e-13 
1337 1 16.6301 -1.27286 -9.55348 -3.54129 4.48482e-13 
1351 1 16.6301 1.27286 -9.55348 -3.54129 4.48482e-13 
1353 1 16.6301 4.1922e-13 -11.7581 -3.54129 4.48481e-13 
1355 1 18.7085 -1.27286 -11.0233 -3.54129 3.16032e-12 
1356 1 18.7085 1.27286 -11.0233 -3.54129 3.16032e-12 
1359 1 20.7868 -1.27286 -12.493 -3.54129 1.61833e-16 
1366 1 20.7868 1.27286 -12.493 -3.54129 1.61833e-16 
1493 1 20.7868 4.25437e-13 -10.2884 -3.54129 1.61836e-16 
1496 1 20.7868 -2.54571 -10.2884 -3.54129 1.61836e-16 
1497 1 22.8651 -2.54571 -11.7581 -3.54129 6.55099e-12 
1499 1 22.8651 -1.27286 -9.55348 -3.54129 6.55099e-12 
1513 1 22.8651 1.27286 -9.55348 -3.54129 6.55099e-12 
1515 1 22.8651 4.1922e-13 -11.7581 -3.54129 6.55099e-12 
1517 1 24.9434 -1.27286 -11.0233 -3.54133 5.14125e-09 
1518 1 24.9434 1.27286 -11.0233 -3.54133 5.14125e-09 
1521 1 27.0217 -1.27286 -12.493 -3.54087 1.31857e-06 
1528 1 27.0217 1.27286 -12.493 -3.54087 1.31857e-06 
1691 1 27.0217 4.1922e-13 -10.2884 -3.54087 1.31857e-06 
1694 1 27.0217 -2.54571 -10.2884 -3.54087 1.31857e-06 
1695 1 29.0993 -2.54571 -11.7581 -3.53741 7.54686e-05 
1697 1 29.0993 -1.27286 -9.55348 -3.53741 7.54686e-05 
1706 1 29.0993 1.27286 -9.55348 -3.53741 7.54686e-05 
1708 1 29.0993 4.25437e-13 -11.7581 -3.53741 7.54686e-05 
422 1 -31.182 2.54571 -8.8186 -3.54182 6.48064 
604 1 -29.0993 2.54571 -11.7581 -3.53741 7.54686e-05 
617 1 -27.0217 2.54571 -10.2884 -3.54087 1.31857e-06 
421 1 -31.182 6.36428 -11.0233 -3.54182 6.48064 
423 1 -31.182 3.81857 -11.0233 -3.54182 6.48064 
425 1 -31.182 5.09142 -8.8186 -3.54182 6.48064 
427 1 -29.0993 6.36428 -9.55348 -3.53741 7.54686e-05 
428 1 -29.0993 3.81857 -9.55348 -3.53741 7.54686e-05 
605 1 -29.0993 5.09142 -11.7581 -3.53741 7.54686e-05 
606 1 -27.0217 5.09142 -10.2884 -3.54087 1.31857e-06 
607 1 -27.0217 6.36428 -12.493 -3.54087 1.31857e-06 
608 1 -27.0217 3.81857 -12.493 -3.54087 1.31857e-06 
772 1 -22.8651 2.54571 -11.7581 -3.54129 6.55099e-12 
609 1 -24.9434 6.36428 -11.0233 -3.54133 5.14125e-09 
619 1 -24.9434 3.81857 -11.0233 -3.54133 5.14125e-09 
623 1 -22.8651 6.36428 -9.55348 -3.54129 6.55099e-12 
624 1 -22.8651 3.81857 -9.55348 -3.54129 6.55099e-12 
773 1 -22.8651 5.09142 -11.7581 -3.54129 6.55099e-12 
785 1 -20.7868 2.54571 -10.2884 -3.54129 1.61821e-16 
774 1 -20.7868 5.09142 -10.2884 -3.54129 1.61821e-16 
775 1 -20.7868 6.36428 -12.493 -3.54129 1.61817e-16 
776 1 -20.7868 3.81857 -12.493 -3.54129 1.61819e-16 
777 1 -18.7085 6.36428 -11.0233 -3.54129 3.16032e-12 
787 1 -18.7085 3.81857 -11.0233 -3.54129 3.16032e-12 
904 1 -16.6301 2.54571 -11.7581 -3.54129 4.48482e-13 
917 1 -14.5518 2.54571 -10.2884 -3.54129 4.48481e-13 
791 1 -16.6301 6.36428 -9.55348 -3.54129 4.48483e-13 
792 1 -16.6301 3.81857 -9.55348 -3.54129 4.48483e-13 
905 1 -16.6301 5.09142 -11.7581 -3.54129 4.48482e-13 
906 1 -14.5518 5.09142 -10.2884 -3.54129 4.48481e-13 
907 1 -14.5518 6.36428 -12.493 -3.54129 4.4848e-13 
908 1 -14.5518 3.81857 -12.493 -3.54129 4.4848e-13 
1000 1 -10.3952 2.54571 -11.7581 -3.54129 1.61853e-16 
909 1 -12.4735 6.36428 -11.0233 -3.54129 3.16031e-12 
919 1 -12.4735 3.81857 -11.0233 -3.54129 3.16031e-12 
923 1 -10.3952 6.36428 -9.55348 -3.54129 1.61866e-16 
924 1 -10.3952 3.81857 -9.55348 -3.54129 1.61867e-16 
1001 1 -10.3952 5.09142 -11.7581 -3.54129 1.61853e-16 
1013 1 -8.31686 2.54571 -10.2884 -3.54129 6.55099e-12 
1002 1 -8.31686 5.09142 -10.2884 -3.54129 6.55099e-12 
1003 1 -8.31686 6.36428 -12.493 -3.54129 6.55099e-12 
1004 1 -8.31686 3.81857 -12.493 -3.54129 6.55099e-12 
1005 1 -6.23854 6.36428 -11.0233 -3.54133 5.14125e-09 
1015 1 -6.23854 3.81857 -11.0233 -3.54133 5.14125e-09 
1060 1 -4.16025 2.54571 -11.7581 -3.54087 1.31857e-06 
1072 1 -2.08263 2.54571 -10.2884 -3.53741 7.54686e-05 
1019 1 -4.16025 6.36428 -9.55348 -3.54087 1.31857e-06 
1020 1 -4.16025 3.81857 -9.55348 -3.54087 1.31857e-06 
1061 1 -4.16025 5.09142 -11.7581 -3.54087 1.31857e-06 
1062 1 -2.08263 5.09142 -10.2884 -3.53741 7.54686e-05 
1063 1 -2.08263 6.36428 -12.493 -3.53741 7.54686e-05 
1064 1 -2.08263 3.81857 -12.493 -3.53741 7.54686e-05 
1133 1 2.08263 2.54571 -10.2884 -3.53741 7.54686e-05 
1134 1 4.16025 2.54571 -11.7581 -3.54087 1.31857e-06 
1093 1 -4.61851e-14 3.81857 -11.0233 -3.54182 6.48064 
1094 1 -4.61851e-14 6.36428 -11.0233 -3.54182 6.48064 
1097 1 2.08263 3.81857 -12.493 -3.53741 7.54686e-05 
1098 1 2.08263 6.36428 -12.493 -3.53741 7.54686e-05 
1130 1 2.08263 5.09142 -10.2884 -3.53741 7.54686e-05 
1136 1 4.16025 3.81857 -9.55348 -3.54087 1.31857e-06 
1144 1 4.16025 6.36428 -9.55348 -3.54087 1.31857e-06 
1145 1 4.16025 5.09142 -11.7581 -3.54087 1.31857e-06 
1095 1 -4.61852e-14 2.54571 -13.2279 -3.54182 6.48064 
1092 1 -4.61852e-14 5.09142 -13.2279 -3.54182 6.48064 
1223 1 8.31686 2.54571 -10.2884 -3.54129 6.55099e-12 
1147 1 6.23854 3.81857 -11.0233 -3.54133 5.14125e-09 
1148 1 6.23854 6.36428 -11.0233 -3.54133 5.14125e-09 
1151 1 8.31686 3.81857 -12.493 -3.54129 6.55099e-12 
1152 1 8.31686 6.36428 -12.493 -3.54129 6.55099e-12 
1220 1 8.31686 5.09142 -10.2884 -3.54129 6.55098e-12 
1224 1 10.3952 2.54571 -11.7581 -3.54129 1.61865e-16 
1226 1 10.3952 3.81857 -9.55348 -3.54129 1.61876e-16 
1234 1 10.3952 6.36428 -9.55348 -3.54129 1.61875e-16 
1235 1 10.3952 5.09142 -11.7581 -3.54129 1.61866e-16 
1237 1 12.4735 3.81857 -11.0233 -3.54129 3.16032e-12 
1238 1 12.4735 6.36428 -11.0233 -3.54129 3.16032e-12 
1349 1 14.5518 2.54571 -10.2884 -3.54129 4.4848e-13 
1350 1 16.6301 2.54571 -11.7581 -3.54129 4.48481e-13 
1241 1 14.5518 3.81857 -12.493 -3.54129 4.48479e-13 
1242 1 14.5518 6.36428 -12.493 -3.54129 4.48479e-13 
1346 1 14.5518 5.09142 -10.2884 -3.54129 4.4848e-13 
1352 1 16.6301 3.81857 -9.55348 -3.54129 4.48482e-13 
1360 1 16.6301 6.36428 -9.55348 -3.54129 4.48482e-13 
1361 1 16.6301 5.09142 -11.7581 -3.54129 4.48481e-13 
1511 1 20.7868 2.54571 -10.2884 -3.54129 1.61837e-16 
1363 1 18.7085 3.81857 -11.0233 -3.54129 3.16032e-12 
1364 1 18.7085 6.36428 -11.0233 -3.54129 3.16032e-12 
1367 1 20.7868 3.81857 -12.493 -3.54129 1.61831e-16 
1368 1 20.7868 6.36428 -12.493 -3.54129 1.61831e-16 
1508 1 20.7868 5.09142 -10.2884 -3.54129 1.61836e-16 
1512 1 22.8651 2.54571 -11.7581 -3.54129 6.55099e-12 
1514 1 22.8651 3.81857 -9.55348 -3.54129 6.55099e-12 
1522 1 22.8651 6.36428 -9.55348 -3.54129 6.55099e-12 
1523 1 22.8651 5.09142 -11.7581 -3.54129 6.55099e-12 
1525 1 24.9434 3.81857 -11.0233 -3.54133 5.14125e-09 
1526 1 24.9434 6.36428 -11.0233 -3.54133 5.14125e-09 
1704 1 27.0217 2.54571 -10.2884 -3.54087 1.31857e-06 
1705 1 29.0993 2.54571 -11.7581 -3.53741 7.54686e-05 
1529 1 27.0217 3.81857 -12.493 -3.54087 1.31857e-06 
1530 1 27.0217 6.36428 -12.493 -3.54087 1.31857e-06 
1701 1 27.0217 5.09142 -10.2884 -3.54087 1.31857e-06 
1707 1 29.0993 3.81857 -9.55348 -3.53741 7.54686e-05 
1709 1 29.0993 6.36428 -9.55348 -3.53741 7.54686e-05 
1710 1 29.0993 5.09142 -11.7581 -3.53741 7.54686e-05 
281 1 -31.182 -5.09142 -4.4093 -3.54182 6.48064 
282 1 -31.182 -3.81857 -6.61395 -3.54182 6.48064 
283 1 -31.182 -6.36428 -6.61395 -3.54182 6.48064 
287 1 -29.0993 -3.81857 -5.14418 -3.53741 7.54686e-05 
301 1 -31.182 -7.63713 -4.4093 -3.54182 6.48064 
303 1 -29.0993 -6.36428 -5.14418 -3.53741 7.54686e-05 
449 1 -29.0993 -5.09142 -7.34883 -3.53741 7.54686e-05 
455 1 -27.0217 -3.81857 -8.08372 -3.54087 1.31857e-06 
469 1 -29.0993 -7.63713 -7.34883 -3.53741 7.54686e-05 
470 1 -27.0217 -7.63713 -5.87907 -3.54087 1.31857e-06 
471 1 -27.0217 -6.36428 -8.08372 -3.54087 1.31857e-06 
472 1 -27.0217 -5.09142 -5.87907 -3.54087 1.31857e-06 
650 1 -24.9434 -7.63713 -8.8186 -3.54133 5.14125e-09 
652 1 -24.9434 -5.09142 -8.8186 -3.54133 5.14125e-09 
473 1 -24.9434 -5.09142 -4.4093 -3.54133 5.14125e-09 
474 1 -24.9434 -3.81857 -6.61395 -3.54133 5.14125e-09 
475 1 -24.9434 -6.36428 -6.61395 -3.54133 5.14125e-09 
479 1 -22.8651 -3.81857 -5.14418 -3.54129 6.55099e-12 
493 1 -24.9434 -7.63713 -4.4093 -3.54133 5.14125e-09 
495 1 -22.8651 -6.36428 -5.14418 -3.54129 6.55099e-12 
653 1 -22.8651 -5.09142 -7.34883 -3.54129 6.55099e-12 
673 1 -22.8651 -7.63713 -7.34883 -3.54129 6.55099e-12 
818 1 -18.7085 -7.63713 -8.8186 -3.54129 3.16032e-12 
820 1 -18.7085 -5.09142 -8.8186 -3.54129 3.16032e-12 
659 1 -20.7868 -3.81857 -8.08372 -3.54129 1.61821e-16 
674 1 -20.7868 -7.63713 -5.87907 -3.54129 1.61817e-16 
675 1 -20.7868 -6.36428 -8.08372 -3.54129 1.6182e-16 
676 1 -20.7868 -5.09142 -5.87907 -3.54129 1.61815e-16 
677 1 -18.7085 -5.09142 -4.4093 -3.54129 3.16032e-12 
678 1 -18.7085 -3.81857 -6.61395 -3.54129 3.16032e-12 
679 1 -18.7085 -6.36428 -6.61395 -3.54129 3.16032e-12 
697 1 -18.7085 -7.63713 -4.4093 -3.54129 3.16032e-12 
683 1 -16.6301 -3.81857 -5.14418 -3.54129 4.48483e-13 
699 1 -16.6301 -6.36428 -5.14418 -3.54129 4.48483e-13 
821 1 -16.6301 -5.09142 -7.34883 -3.54129 4.48483e-13 
827 1 -14.5518 -3.81857 -8.08372 -3.54129 4.48481e-13 
841 1 -16.6301 -7.63713 -7.34883 -3.54129 4.48483e-13 
842 1 -14.5518 -7.63713 -5.87907 -3.54129 4.48481e-13 
843 1 -14.5518 -6.36428 -8.08372 -3.54129 4.48481e-13 
844 1 -14.5518 -5.09142 -5.87907 -3.54129 4.48481e-13 
950 1 -12.4735 -7.63713 -8.8186 -3.54129 3.16031e-12 
952 1 -12.4735 -5.09142 -8.8186 -3.54129 3.16031e-12 
845 1 -12.4735 -5.09142 -4.4093 -3.54129 3.16031e-12 
846 1 -12.4735 -3.81857 -6.61395 -3.54129 3.16031e-12 
847 1 -12.4735 -6.36428 -6.61395 -3.54129 3.16031e-12 
851 1 -10.3952 -3.81857 -5.14418 -3.54129 1.6186e-16 
865 1 -12.4735 -7.63713 -4.4093 -3.54129 3.16031e-12 
867 1 -10.3952 -6.36428 -5.14418 -3.54129 1.6186e-16 
953 1 -10.3952 -5.09142 -7.34883 -3.54129 1.61864e-16 
972 1 -10.3952 -7.63713 -7.34883 -3.54129 1.61863e-16 
1042 1 -6.23854 -7.63713 -8.8186 -3.54133 5.14125e-09 
1044 1 -6.23854 -5.09142 -8.8186 -3.54133 5.14125e-09 
959 1 -8.31686 -3.81857 -8.08372 -3.54129 6.55099e-12 
973 1 -8.31686 -7.63713 -5.87907 -3.54129 6.55099e-12 
974 1 -8.31686 -6.36428 -8.08372 -3.54129 6.55099e-12 
975 1 -8.31686 -5.09142 -5.87907 -3.54129 6.55099e-12 
977 1 -6.23854 -3.81857 -6.61395 -3.54133 5.14125e-09 
978 1 -6.23854 -6.36428 -6.61395 -3.54133 5.14125e-09 
982 1 -4.16025 -3.81857 -5.14418 -3.54087 1.31857e-06 
990 1 -4.16025 -6.36428 -5.14418 -3.54087 1.31857e-06 
1045 1 -4.16025 -5.09142 -7.34883 -3.54087 1.31857e-06 
1051 1 -2.08263 -3.81857 -8.08372 -3.53741 7.54686e-05 
1053 1 -4.16025 -7.63713 -7.34883 -3.54087 1.31857e-06 
1054 1 -2.08263 -7.63713 -5.87907 -3.53741 7.54686e-05 
1055 1 -2.08263 -6.36428 -8.08372 -3.53741 7.54686e-05 
1056 1 -2.08263 -5.09142 -5.87907 -3.53741 7.54686e-05 
1099 1 -4.61851e-14 -7.63713 -8.8186 -3.54182 6.48064 
1104 1 -4.61851e-14 -5.09142 -8.8186 -3.54182 6.48064 
1100 1 -4.61851e-14 -6.36428 -6.61395 -3.54182 6.48064 
1102 1 -4.61851e-14 -3.81857 -6.61395 -3.54182 6.48064 
1106 1 2.08263 -6.36428 -8.08372 -3.53741 7.54686e-05 
1107 1 2.08263 -3.81857 -8.08372 -3.53741 7.54686e-05 
1157 1 2.08263 -7.63713 -5.87907 -3.53741 7.54686e-05 
1166 1 2.08263 -5.09142 -5.87907 -3.53741 7.54686e-05 
1167 1 4.16025 -5.09142 -7.34883 -3.54087 1.31857e-06 
1168 1 4.16025 -6.36428 -5.14418 -3.54087 1.31857e-06 
1169 1 4.16025 -3.81857 -5.14418 -3.54087 1.31857e-06 
1170 1 4.16025 -7.63713 -7.34883 -3.54087 1.31857e-06 
1171 1 6.23854 -7.63713 -8.8186 -3.54133 5.14125e-09 
1188 1 6.23854 -5.09142 -8.8186 -3.54133 5.14125e-09 
1172 1 6.23854 -6.36428 -6.61395 -3.54133 5.14125e-09 
1186 1 6.23854 -3.81857 -6.61395 -3.54133 5.14125e-09 
1190 1 8.31686 -6.36428 -8.08372 -3.54129 6.55099e-12 
1191 1 8.31686 -3.81857 -8.08372 -3.54129 6.55099e-12 
1271 1 8.31686 -7.63713 -5.87907 -3.54129 6.55099e-12 
1290 1 8.31686 -5.09142 -5.87907 -3.54129 6.55099e-12 
1295 1 12.4735 -7.63713 -8.8186 -3.54129 3.16032e-12 
1314 1 12.4735 -5.09142 -8.8186 -3.54129 3.16032e-12 
1291 1 10.3952 -5.09142 -7.34883 -3.54129 1.61875e-16 
1292 1 10.3952 -6.36428 -5.14418 -3.54129 1.6187e-16 
1293 1 10.3952 -3.81857 -5.14418 -3.54129 1.61869e-16 
1294 1 10.3952 -7.63713 -7.34883 -3.54129 1.61877e-16 
1296 1 12.4735 -6.36428 -6.61395 -3.54129 3.16032e-12 
1312 1 12.4735 -3.81857 -6.61395 -3.54129 3.16032e-12 
1429 1 12.4735 -5.09142 -4.4093 -3.54129 3.16032e-12 
1432 1 12.4735 -7.63713 -4.4093 -3.54129 3.16032e-12 
1316 1 14.5518 -6.36428 -8.08372 -3.54129 4.4848e-13 
1317 1 14.5518 -3.81857 -8.08372 -3.54129 4.4848e-13 
1433 1 14.5518 -7.63713 -5.87907 -3.54129 4.4848e-13 
1452 1 14.5518 -5.09142 -5.87907 -3.54129 4.4848e-13 
1453 1 16.6301 -5.09142 -7.34883 -3.54129 4.48482e-13 
1454 1 16.6301 -6.36428 -5.14418 -3.54129 4.48482e-13 
1455 1 16.6301 -3.81857 -5.14418 -3.54129 4.48482e-13 
1456 1 16.6301 -7.63713 -7.34883 -3.54129 4.48482e-13 
1457 1 18.7085 -7.63713 -8.8186 -3.54129 3.16032e-12 
1476 1 18.7085 -5.09142 -8.8186 -3.54129 3.16032e-12 
1458 1 18.7085 -6.36428 -6.61395 -3.54129 3.16032e-12 
1474 1 18.7085 -3.81857 -6.61395 -3.54129 3.16032e-12 
1478 1 20.7868 -6.36428 -8.08372 -3.54129 1.61837e-16 
1479 1 20.7868 -3.81857 -8.08372 -3.54129 1.61836e-16 
1627 1 18.7085 -5.09142 -4.4093 -3.54129 3.16032e-12 
1630 1 18.7085 -7.63713 -4.4093 -3.54129 3.16032e-12 
1631 1 20.7868 -7.63713 -5.87907 -3.54129 1.61829e-16 
1650 1 20.7868 -5.09142 -5.87907 -3.54129 1.61829e-16 
1655 1 24.9434 -7.63713 -8.8186 -3.54133 5.14125e-09 
1674 1 24.9434 -5.09142 -8.8186 -3.54133 5.14125e-09 
1651 1 22.8651 -5.09142 -7.34883 -3.54129 6.55099e-12 
1652 1 22.8651 -6.36428 -5.14418 -3.54129 6.55099e-12 
1653 1 22.8651 -3.81857 -5.14418 -3.54129 6.55099e-12 
1654 1 22.8651 -7.63713 -7.34883 -3.54129 6.55099e-12 
1656 1 24.9434 -6.36428 -6.61395 -3.54133 5.14125e-09 
1672 1 24.9434 -3.81857 -6.61395 -3.54133 5.14125e-09 
1825 1 24.9434 -5.09142 -4.4093 -3.54133 5.14125e-09 
1828 1 24.9434 -7.63713 -4.4093 -3.54133 5.14125e-09 
1676 1 27.0217 -6.36428 -8.08372 -3.54087 1.31857e-06 
1677 1 27.0217 -3.81857 -8.08372 -3.54087 1.31857e-06 
1829 1 27.0217 -7.63713 -5.87907 -3.54087 1.31857e-06 
1848 1 27.0217 -5.09142 -5.87907 -3.54087 1.31857e-06 
1849 1 29.0993 -5.09142 -7.34883 -3.53741 7.54686e-05 
1850 1 29.0993 -6.36428 -5.14418 -3.53741 7.54686e-05 
1851 1 29.0993 -3.81857 -5.14418 -3.53741 7.54686e-05 
1852 1 29.0993 -7.63713 -7.34883 -3.53741 7.54686e-05 
269 1 -31.182 4.25437e-13 -4.4093 -3.54182 6.48064 
270 1 -31.182 1.27286 -6.61395 -3.54182 6.48064 
271 1 -31.182 -1.27286 -6.61395 -3.54182 6.48064 
275 1 -29.0993 1.27286 -5.14418 -3.53741 7.54686e-05 
284 1 -31.182 -2.54571 -4.4093 -3.54182 6.48064 
286 1 -29.0993 -1.27286 -5.14418 -3.53741 7.54686e-05 
434 1 -29.0993 4.25437e-13 -7.34883 -3.53741 7.54686e-05 
440 1 -27.0217 1.27286 -8.08372 -3.54087 1.31857e-06 
452 1 -29.0993 -2.54571 -7.34883 -3.53741 7.54686e-05 
453 1 -27.0217 -2.54571 -5.87907 -3.54087 1.31857e-06 
454 1 -27.0217 -1.27286 -8.08372 -3.54087 1.31857e-06 
456 1 -27.0217 4.1922e-13 -5.87907 -3.54087 1.31857e-06 
633 1 -24.9434 -2.54571 -8.8186 -3.54133 5.14125e-09 
636 1 -24.9434 4.15667e-13 -8.8186 -3.54133 5.14125e-09 
457 1 -24.9434 4.15667e-13 -4.4093 -3.54133 5.14125e-09 
458 1 -24.9434 1.27286 -6.61395 -3.54133 5.14125e-09 
459 1 -24.9434 -1.27286 -6.61395 -3.54133 5.14125e-09 
463 1 -22.8651 1.27286 -5.14418 -3.54129 6.55099e-12 
476 1 -24.9434 -2.54571 -4.4093 -3.54133 5.14125e-09 
478 1 -22.8651 -1.27286 -5.14418 -3.54129 6.55099e-12 
637 1 -22.8651 4.1922e-13 -7.34883 -3.54129 6.55099e-12 
656 1 -22.8651 -2.54571 -7.34883 -3.54129 6.55099e-12 
801 1 -18.7085 -2.54571 -8.8186 -3.54129 3.16032e-12 
804 1 -18.7085 4.1922e-13 -8.8186 -3.54129 3.16032e-12 
643 1 -20.7868 1.27286 -8.08372 -3.54129 1.6182e-16 
657 1 -20.7868 -2.54571 -5.87907 -3.54129 1.61814e-16 
658 1 -20.7868 -1.27286 -8.08372 -3.54129 1.6182e-16 
660 1 -20.7868 4.25437e-13 -5.87907 -3.54129 1.61814e-16 
661 1 -18.7085 4.1922e-13 -4.4093 -3.54129 3.16032e-12 
662 1 -18.7085 1.27286 -6.61395 -3.54129 3.16032e-12 
663 1 -18.7085 -1.27286 -6.61395 -3.54129 3.16032e-12 
680 1 -18.7085 -2.54571 -4.4093 -3.54129 3.16032e-12 
667 1 -16.6301 1.27286 -5.14418 -3.54129 4.48483e-13 
682 1 -16.6301 -1.27286 -5.14418 -3.54129 4.48483e-13 
805 1 -16.6301 4.1922e-13 -7.34883 -3.54129 4.48483e-13 
811 1 -14.5518 1.27286 -8.08372 -3.54129 4.48481e-13 
824 1 -16.6301 -2.54571 -7.34883 -3.54129 4.48483e-13 
825 1 -14.5518 -2.54571 -5.87907 -3.54129 4.48481e-13 
826 1 -14.5518 -1.27286 -8.08372 -3.54129 4.48481e-13 
828 1 -14.5518 4.1922e-13 -5.87907 -3.54129 4.4848e-13 
933 1 -12.4735 -2.54571 -8.8186 -3.54129 3.16031e-12 
936 1 -12.4735 4.1922e-13 -8.8186 -3.54129 3.16031e-12 
829 1 -12.4735 4.1922e-13 -4.4093 -3.54129 3.16031e-12 
830 1 -12.4735 1.27286 -6.61395 -3.54129 3.16031e-12 
831 1 -12.4735 -1.27286 -6.61395 -3.54129 3.16031e-12 
835 1 -10.3952 1.27286 -5.14418 -3.54129 1.61861e-16 
848 1 -12.4735 -2.54571 -4.4093 -3.54129 3.16031e-12 
850 1 -10.3952 -1.27286 -5.14418 -3.54129 1.61861e-16 
937 1 -10.3952 4.25437e-13 -7.34883 -3.54129 1.61862e-16 
956 1 -10.3952 -2.54571 -7.34883 -3.54129 1.61865e-16 
1029 1 -6.23854 -2.54571 -8.8186 -3.54133 5.14125e-09 
1032 1 -6.23854 4.13891e-13 -8.8186 -3.54133 5.14125e-09 
943 1 -8.31686 1.27286 -8.08372 -3.54129 6.55099e-12 
957 1 -8.31686 -2.54571 -5.87907 -3.54129 6.55099e-12 
958 1 -8.31686 -1.27286 -8.08372 -3.54129 6.55099e-12 
960 1 -8.31686 4.1922e-13 -5.87907 -3.54129 6.55099e-12 
962 1 -6.23854 1.27286 -6.61395 -3.54133 5.14125e-09 
963 1 -6.23854 -1.27286 -6.61395 -3.54133 5.14125e-09 
967 1 -4.16025 1.27286 -5.14418 -3.54087 1.31857e-06 
981 1 -4.16025 -1.27286 -5.14418 -3.54087 1.31857e-06 
1033 1 -4.16025 4.1922e-13 -7.34883 -3.54087 1.31857e-06 
1039 1 -2.08263 1.27286 -8.08372 -3.53741 7.54686e-05 
1048 1 -4.16025 -2.54571 -7.34883 -3.54087 1.31857e-06 
1049 1 -2.08263 -2.54571 -5.87907 -3.53741 7.54686e-05 
1050 1 -2.08263 -1.27286 -8.08372 -3.53741 7.54686e-05 
1052 1 -2.08263 4.25437e-13 -5.87907 -3.53741 7.54686e-05 
1101 1 -4.61851e-14 -2.54571 -8.8186 -3.54182 6.48064 
1114 1 -4.61851e-14 4.25437e-13 -8.8186 -3.54182 6.48064 
1103 1 -4.61851e-14 -1.27286 -6.61395 -3.54182 6.48064 
1112 1 -4.61851e-14 1.27286 -6.61395 -3.54182 6.48064 
1116 1 2.08263 -1.27286 -8.08372 -3.53741 7.54686e-05 
1117 1 2.08263 1.27286 -8.08372 -3.53741 7.54686e-05 
1163 1 2.08263 -2.54571 -5.87907 -3.53741 7.54686e-05 
1180 1 2.08263 4.25437e-13 -5.87907 -3.53741 7.54686e-05 
1181 1 4.16025 4.1922e-13 -7.34883 -3.54087 1.31857e-06 
1182 1 4.16025 -1.27286 -5.14418 -3.54087 1.31857e-06 
1183 1 4.16025 1.27286 -5.14418 -3.54087 1.31857e-06 
1184 1 4.16025 -2.54571 -7.34883 -3.54087 1.31857e-06 
1185 1 6.23854 -2.54571 -8.8186 -3.54133 5.14125e-09 
1204 1 6.23854 4.13891e-13 -8.8186 -3.54133 5.14125e-09 
1187 1 6.23854 -1.27286 -6.61395 -3.54133 5.14125e-09 
1202 1 6.23854 1.27286 -6.61395 -3.54133 5.14125e-09 
1206 1 8.31686 -1.27286 -8.08372 -3.54129 6.55099e-12 
1207 1 8.31686 1.27286 -8.08372 -3.54129 6.55099e-12 
1287 1 8.31686 -2.54571 -5.87907 -3.54129 6.55099e-12 
1306 1 8.31686 4.1922e-13 -5.87907 -3.54129 6.55099e-12 
1311 1 12.4735 -2.54571 -8.8186 -3.54129 3.16032e-12 
1330 1 12.4735 4.1922e-13 -8.8186 -3.54129 3.16032e-12 
1307 1 10.3952 4.25437e-13 -7.34883 -3.54129 1.61876e-16 
1308 1 10.3952 -1.27286 -5.14418 -3.54129 1.61869e-16 
1309 1 10.3952 1.27286 -5.14418 -3.54129 1.61869e-16 
1310 1 10.3952 -2.54571 -7.34883 -3.54129 1.61876e-16 
1313 1 12.4735 -1.27286 -6.61395 -3.54129 3.16032e-12 
1328 1 12.4735 1.27286 -6.61395 -3.54129 3.16032e-12 
1445 1 12.4735 4.1922e-13 -4.4093 -3.54129 3.16032e-12 
1448 1 12.4735 -2.54571 -4.4093 -3.54129 3.16032e-12 
1332 1 14.5518 -1.27286 -8.08372 -3.54129 4.4848e-13 
1333 1 14.5518 1.27286 -8.08372 -3.54129 4.4848e-13 
1449 1 14.5518 -2.54571 -5.87907 -3.54129 4.4848e-13 
1468 1 14.5518 4.1922e-13 -5.87907 -3.54129 4.4848e-13 