ITEM: TIMESTEP
70
ITEM: NUMBER OF ATOMS
2160
ITEM: BOX BOUNDS pp pp pp
-3.1146600958263473e+01 3.1146600958263473e+01
-7.6274061143900163e+00 7.6274061143900163e+00
-1.3211054662927493e+01 1.3211054662927493e+01
ITEM: ATOMS id type x y z c_eng c_csym 
432 1 -31.1466 -3.8137 -11.0092 -3.54188 6.46415 
446 1 -31.1466 -7.62741 -8.80737 -3.54188 6.46415 
447 1 -31.1466 -6.35617 -11.0092 -3.54188 6.46415 
448 1 -31.1466 -5.08494 -8.80737 -3.54188 6.46415 
450 1 -29.0668 -3.8137 -9.54132 -3.53748 5.4839e-05 
451 1 -29.0668 -6.35617 -9.54132 -3.53748 5.4839e-05 
627 1 -29.0668 -7.62741 -11.7432 -3.53748 5.4839e-05 
628 1 -29.0668 -5.08494 -11.7432 -3.53748 5.4839e-05 
629 1 -26.9912 -5.08494 -10.2753 -3.54099 9.22385e-07 
630 1 -26.9912 -3.8137 -12.4771 -3.54099 9.22385e-07 
631 1 -26.9912 -6.35617 -12.4771 -3.54099 9.22385e-07 
649 1 -26.9912 -7.62741 -10.2753 -3.54099 9.22385e-07 
635 1 -24.9151 -3.8137 -11.0092 -3.54139 7.39026e-08 
651 1 -24.9151 -6.35617 -11.0092 -3.54139 7.39026e-08 
654 1 -22.8392 -3.8137 -9.54132 -3.54135 5.4092e-10 
655 1 -22.8392 -6.35617 -9.54132 -3.54135 5.4092e-10 
795 1 -22.8392 -7.62741 -11.7432 -3.54135 5.4092e-10 
796 1 -22.8392 -5.08494 -11.7432 -3.54135 5.4092e-10 
797 1 -20.7632 -5.08494 -10.2753 -3.54136 3.97689e-11 
798 1 -20.7632 -3.8137 -12.4771 -3.54136 3.97689e-11 
799 1 -20.7632 -6.35617 -12.4771 -3.54136 3.97689e-11 
803 1 -18.6872 -3.8137 -11.0092 -3.54136 2.3459e-12 
817 1 -20.7632 -7.62741 -10.2753 -3.54136 3.97689e-11 
819 1 -18.6872 -6.35617 -11.0092 -3.54136 2.3459e-12 
822 1 -16.6113 -3.8137 -9.54132 -3.54136 4.0449e-14 
823 1 -16.6113 -6.35617 -9.54132 -3.54136 4.0449e-14 
927 1 -16.6113 -7.62741 -11.7432 -3.54136 4.0449e-14 
928 1 -16.6113 -5.08494 -11.7432 -3.54136 4.0449e-14 
929 1 -14.5353 -5.08494 -10.2753 -3.54136 4.04496e-14 
930 1 -14.5353 -3.8137 -12.4771 -3.54136 4.04496e-14 
931 1 -14.5353 -6.35617 -12.4771 -3.54136 4.04496e-14 
949 1 -14.5353 -7.62741 -10.2753 -3.54136 4.04496e-14 
935 1 -12.4594 -3.8137 -11.0092 -3.54136 2.3459e-12 
951 1 -12.4594 -6.35617 -11.0092 -3.54136 2.3459e-12 
954 1 -10.3834 -3.8137 -9.54132 -3.54136 3.97689e-11 
955 1 -10.3834 -6.35617 -9.54132 -3.54136 3.97689e-11 
1023 1 -10.3834 -7.62741 -11.7432 -3.54136 3.97689e-11 
1024 1 -10.3834 -5.08494 -11.7432 -3.54136 3.97689e-11 
1025 1 -8.30743 -5.08494 -10.2753 -3.54135 5.4092e-10 
1026 1 -8.30743 -3.8137 -12.4771 -3.54135 5.4092e-10 
1027 1 -8.30743 -6.35617 -12.4771 -3.54135 5.4092e-10 
1031 1 -6.23148 -3.8137 -11.0092 -3.54139 7.39026e-08 
1041 1 -8.30743 -7.62741 -10.2753 -3.54135 5.4092e-10 
1043 1 -6.23148 -6.35617 -11.0092 -3.54139 7.39026e-08 
1046 1 -4.15538 -3.8137 -9.54132 -3.54099 9.22385e-07 
1047 1 -4.15538 -6.35617 -9.54132 -3.54099 9.22385e-07 
1074 1 -4.15538 -7.62741 -11.7432 -3.54099 9.22385e-07 
1075 1 -4.15538 -5.08494 -11.7432 -3.54099 9.22385e-07 
1076 1 -2.07983 -5.08494 -10.2753 -3.53748 5.4839e-05 
1077 1 -2.07983 -3.8137 -12.4771 -3.53748 5.4839e-05 
1078 1 -2.07983 -6.35617 -12.4771 -3.53748 5.4839e-05 
1080 1 -2.07983 -7.62741 -10.2753 -3.53748 5.4839e-05 
1082 1 -3.0139e-14 -6.35617 -11.0092 -3.54188 6.46415 
1083 1 -3.62153e-14 -3.8137 -11.0092 -3.54188 6.46415 
1085 1 2.07983 -6.35617 -12.4771 -3.53748 5.4839e-05 
1090 1 2.07983 -3.8137 -12.4771 -3.53748 5.4839e-05 
1105 1 2.07983 -5.08494 -10.2753 -3.53748 5.4839e-05 
1108 1 2.07983 -7.62741 -10.2753 -3.53748 5.4839e-05 
1109 1 4.15538 -7.62741 -11.7432 -3.54099 9.22385e-07 
1110 1 4.15538 -6.35617 -9.54132 -3.54099 9.22385e-07 
1120 1 4.15538 -3.8137 -9.54132 -3.54099 9.22385e-07 
1122 1 4.15538 -5.08494 -11.7432 -3.54099 9.22385e-07 
1081 1 -3.18831e-14 -5.08494 -13.2111 -3.54188 6.46415 
1084 1 -2.87247e-14 -7.62741 -13.2111 -3.54188 6.46415 
1124 1 6.23148 -6.35617 -11.0092 -3.54139 7.39026e-08 
1125 1 6.23148 -3.8137 -11.0092 -3.54139 7.39026e-08 
1127 1 8.30743 -6.35617 -12.4771 -3.54135 5.4092e-10 
1142 1 8.30743 -3.8137 -12.4771 -3.54135 5.4092e-10 
1189 1 8.30743 -5.08494 -10.2753 -3.54135 5.4092e-10 
1192 1 8.30743 -7.62741 -10.2753 -3.54135 5.4092e-10 
1193 1 10.3834 -7.62741 -11.7432 -3.54136 3.97689e-11 
1194 1 10.3834 -6.35617 -9.54132 -3.54136 3.97689e-11 
1210 1 10.3834 -3.8137 -9.54132 -3.54136 3.97689e-11 
1212 1 10.3834 -5.08494 -11.7432 -3.54136 3.97689e-11 
1214 1 12.4594 -6.35617 -11.0092 -3.54136 2.3459e-12 
1215 1 12.4594 -3.8137 -11.0092 -3.54136 2.3459e-12 
1217 1 14.5353 -6.35617 -12.4771 -3.54136 4.04498e-14 
1232 1 14.5353 -3.8137 -12.4771 -3.54136 4.04498e-14 
1315 1 14.5353 -5.08494 -10.2753 -3.54136 4.04498e-14 
1318 1 14.5353 -7.62741 -10.2753 -3.54136 4.04498e-14 
1319 1 16.6113 -7.62741 -11.7432 -3.54136 4.04493e-14 
1320 1 16.6113 -6.35617 -9.54132 -3.54136 4.04493e-14 
1336 1 16.6113 -3.8137 -9.54132 -3.54136 4.04493e-14 
1338 1 16.6113 -5.08494 -11.7432 -3.54136 4.04493e-14 
1340 1 18.6872 -6.35617 -11.0092 -3.54136 2.3459e-12 
1341 1 18.6872 -3.8137 -11.0092 -3.54136 2.3459e-12 
1343 1 20.7632 -6.35617 -12.4771 -3.54136 3.97689e-11 
1358 1 20.7632 -3.8137 -12.4771 -3.54136 3.97689e-11 
1477 1 20.7632 -5.08494 -10.2753 -3.54136 3.97689e-11 
1480 1 20.7632 -7.62741 -10.2753 -3.54136 3.97689e-11 
1481 1 22.8392 -7.62741 -11.7432 -3.54135 5.4092e-10 
1482 1 22.8392 -6.35617 -9.54132 -3.54135 5.4092e-10 
1498 1 22.8392 -3.8137 -9.54132 -3.54135 5.4092e-10 
1500 1 22.8392 -5.08494 -11.7432 -3.54135 5.4092e-10 
1502 1 24.9151 -6.35617 -11.0092 -3.54139 7.39026e-08 
1503 1 24.9151 -3.8137 -11.0092 -3.54139 7.39026e-08 
1505 1 26.9912 -6.35617 -12.4771 -3.54099 9.22385e-07 
1520 1 26.9912 -3.8137 -12.4771 -3.54099 9.22385e-07 
1675 1 26.9912 -5.08494 -10.2753 -3.54099 9.22385e-07 
1678 1 26.9912 -7.62741 -10.2753 -3.54099 9.22385e-07 
1679 1 29.0668 -7.62741 -11.7432 -3.53748 5.4839e-05 
1680 1 29.0668 -6.35617 -9.54132 -3.53748 5.4839e-05 
1696 1 29.0668 -3.8137 -9.54132 -3.53748 5.4839e-05 
1698 1 29.0668 -5.08494 -11.7432 -3.53748 5.4839e-05 
424 1 -31.1466 1.27123 -11.0092 -3.54188 6.46415 
430 1 -31.1466 -2.54247 -8.80737 -3.54188 6.46415 
431 1 -31.1466 -1.27123 -11.0092 -3.54188 6.46415 
433 1 -31.1466 4.00496e-13 -8.80737 -3.54188 6.46415 
435 1 -29.0668 1.27123 -9.54132 -3.53748 5.4839e-05 
436 1 -29.0668 -1.27123 -9.54132 -3.53748 5.4839e-05 
612 1 -29.0668 -2.54247 -11.7432 -3.53748 5.4839e-05 
613 1 -29.0668 3.99384e-13 -11.7432 -3.53748 5.4839e-05 
614 1 -26.9912 3.98466e-13 -10.2753 -3.54099 9.22385e-07 
615 1 -26.9912 1.27123 -12.4771 -3.54099 9.22385e-07 
616 1 -26.9912 -1.27123 -12.4771 -3.54099 9.22385e-07 
632 1 -26.9912 -2.54247 -10.2753 -3.54099 9.22385e-07 
620 1 -24.9151 1.27123 -11.0092 -3.54139 7.39026e-08 
634 1 -24.9151 -1.27123 -11.0092 -3.54139 7.39026e-08 
638 1 -22.8392 1.27123 -9.54132 -3.54135 5.4092e-10 
639 1 -22.8392 -1.27123 -9.54132 -3.54135 5.4092e-10 
780 1 -22.8392 -2.54247 -11.7432 -3.54135 5.4092e-10 
781 1 -22.8392 3.94066e-13 -11.7432 -3.54135 5.4092e-10 
782 1 -20.7632 4.00019e-13 -10.2753 -3.54136 3.97689e-11 
783 1 -20.7632 1.27123 -12.4771 -3.54136 3.97689e-11 
784 1 -20.7632 -1.27123 -12.4771 -3.54136 3.97689e-11 
788 1 -18.6872 1.27123 -11.0092 -3.54136 2.3459e-12 
800 1 -20.7632 -2.54247 -10.2753 -3.54136 3.97689e-11 
802 1 -18.6872 -1.27123 -11.0092 -3.54136 2.3459e-12 
806 1 -16.6113 1.27123 -9.54132 -3.54136 4.0449e-14 
807 1 -16.6113 -1.27123 -9.54132 -3.54136 4.0449e-14 
912 1 -16.6113 -2.54247 -11.7432 -3.54136 4.0449e-14 
913 1 -16.6113 3.9479e-13 -11.7432 -3.54136 4.0449e-14 
914 1 -14.5353 3.95114e-13 -10.2753 -3.54136 4.04496e-14 
915 1 -14.5353 1.27123 -12.4771 -3.54136 4.04496e-14 
916 1 -14.5353 -1.27123 -12.4771 -3.54136 4.04496e-14 
932 1 -14.5353 -2.54247 -10.2753 -3.54136 4.04496e-14 
920 1 -12.4594 1.27123 -11.0092 -3.54136 2.3459e-12 
934 1 -12.4594 -1.27123 -11.0092 -3.54136 2.3459e-12 
938 1 -10.3834 1.27123 -9.54132 -3.54136 3.97689e-11 
939 1 -10.3834 -1.27123 -9.54132 -3.54136 3.97689e-11 
1008 1 -10.3834 -2.54247 -11.7432 -3.54136 3.97689e-11 
1009 1 -10.3834 3.93533e-13 -11.7432 -3.54136 3.97689e-11 
1010 1 -8.30743 3.92563e-13 -10.2753 -3.54135 5.4092e-10 
1011 1 -8.30743 1.27123 -12.4771 -3.54135 5.4092e-10 
1012 1 -8.30743 -1.27123 -12.4771 -3.54135 5.4092e-10 
1016 1 -6.23148 1.27123 -11.0092 -3.54139 7.39026e-08 
1028 1 -8.30743 -2.54247 -10.2753 -3.54135 5.4092e-10 
1030 1 -6.23148 -1.27123 -11.0092 -3.54139 7.39026e-08 
1034 1 -4.15538 1.27123 -9.54132 -3.54099 9.22385e-07 
1035 1 -4.15538 -1.27123 -9.54132 -3.54099 9.22385e-07 
1067 1 -4.15538 -2.54247 -11.7432 -3.54099 9.22385e-07 
1068 1 -4.15538 3.94909e-13 -11.7432 -3.54099 9.22385e-07 
1069 1 -2.07983 4.00226e-13 -10.2753 -3.53748 5.4839e-05 
1070 1 -2.07983 1.27123 -12.4771 -3.53748 5.4839e-05 
1071 1 -2.07983 -1.27123 -12.4771 -3.53748 5.4839e-05 
1079 1 -2.07983 -2.54247 -10.2753 -3.53748 5.4839e-05 
1087 1 -3.50308e-14 -1.27123 -11.0092 -3.54188 6.46415 
1088 1 -3.48416e-14 1.27123 -11.0092 -3.54188 6.46415 
1091 1 2.07983 -1.27123 -12.4771 -3.53748 5.4839e-05 
1096 1 2.07983 1.27123 -12.4771 -3.53748 5.4839e-05 
1115 1 2.07983 4.00458e-13 -10.2753 -3.53748 5.4839e-05 
1118 1 2.07983 -2.54247 -10.2753 -3.53748 5.4839e-05 
1119 1 4.15538 -2.54247 -11.7432 -3.54099 9.22385e-07 
1121 1 4.15538 -1.27123 -9.54132 -3.54099 9.22385e-07 
1135 1 4.15538 1.27123 -9.54132 -3.54099 9.22385e-07 
1137 1 4.15538 3.95265e-13 -11.7432 -3.54099 9.22385e-07 
1086 1 -3.25743e-14 3.9995e-13 -13.2111 -3.54188 6.46415 
1089 1 -3.23663e-14 -2.54247 -13.2111 -3.54188 6.46415 
1139 1 6.23148 -1.27123 -11.0092 -3.54139 7.39026e-08 
1140 1 6.23148 1.27123 -11.0092 -3.54139 7.39026e-08 
1143 1 8.30743 -1.27123 -12.4771 -3.54135 5.4092e-10 
1150 1 8.30743 1.27123 -12.4771 -3.54135 5.4092e-10 
1205 1 8.30743 3.94172e-13 -10.2753 -3.54135 5.4092e-10 
1208 1 8.30743 -2.54247 -10.2753 -3.54135 5.4092e-10 
1209 1 10.3834 -2.54247 -11.7432 -3.54136 3.97689e-11 
1211 1 10.3834 -1.27123 -9.54132 -3.54136 3.97689e-11 
1225 1 10.3834 1.27123 -9.54132 -3.54136 3.97689e-11 
1227 1 10.3834 3.97811e-13 -11.7432 -3.54136 3.97689e-11 
1229 1 12.4594 -1.27123 -11.0092 -3.54136 2.3459e-12 
1230 1 12.4594 1.27123 -11.0092 -3.54136 2.3459e-12 
1233 1 14.5353 -1.27123 -12.4771 -3.54136 4.04498e-14 
1240 1 14.5353 1.27123 -12.4771 -3.54136 4.04498e-14 
1331 1 14.5353 3.9572e-13 -10.2753 -3.54136 4.04499e-14 
1334 1 14.5353 -2.54247 -10.2753 -3.54136 4.04499e-14 
1335 1 16.6113 -2.54247 -11.7432 -3.54136 4.04493e-14 
1337 1 16.6113 -1.27123 -9.54132 -3.54136 4.04493e-14 
1351 1 16.6113 1.27123 -9.54132 -3.54136 4.04493e-14 
1353 1 16.6113 3.95445e-13 -11.7432 -3.54136 4.04493e-14 
1355 1 18.6872 -1.27123 -11.0092 -3.54136 2.3459e-12 
1356 1 18.6872 1.27123 -11.0092 -3.54136 2.3459e-12 
1359 1 20.7632 -1.27123 -12.4771 -3.54136 3.97689e-11 
1366 1 20.7632 1.27123 -12.4771 -3.54136 3.97689e-11 
1493 1 20.7632 3.97286e-13 -10.2753 -3.54136 3.97689e-11 
1496 1 20.7632 -2.54247 -10.2753 -3.54136 3.97689e-11 
1497 1 22.8392 -2.54247 -11.7432 -3.54135 5.4092e-10 
1499 1 22.8392 -1.27123 -9.54132 -3.54135 5.4092e-10 
1513 1 22.8392 1.27123 -9.54132 -3.54135 5.4092e-10 
1515 1 22.8392 3.94238e-13 -11.7432 -3.54135 5.4092e-10 
1517 1 24.9151 -1.27123 -11.0092 -3.54139 7.39026e-08 
1518 1 24.9151 1.27123 -11.0092 -3.54139 7.39026e-08 
1521 1 26.9912 -1.27123 -12.4771 -3.54099 9.22385e-07 
1528 1 26.9912 1.27123 -12.4771 -3.54099 9.22385e-07 
1691 1 26.9912 3.95619e-13 -10.2753 -3.54099 9.22385e-07 
1694 1 26.9912 -2.54247 -10.2753 -3.54099 9.22385e-07 
1695 1 29.0668 -2.54247 -11.7432 -3.53748 5.4839e-05 
1697 1 29.0668 -1.27123 -9.54132 -3.53748 5.4839e-05 
1706 1 29.0668 1.27123 -9.54132 -3.53748 5.4839e-05 
1708 1 29.0668 4.00572e-13 -11.7432 -3.53748 5.4839e-05 
422 1 -31.1466 2.54247 -8.80737 -3.54188 6.46415 
604 1 -29.0668 2.54247 -11.7432 -3.53748 5.4839e-05 
617 1 -26.9912 2.54247 -10.2753 -3.54099 9.22385e-07 
421 1 -31.1466 6.35617 -11.0092 -3.54188 6.46415 
423 1 -31.1466 3.8137 -11.0092 -3.54188 6.46415 
425 1 -31.1466 5.08494 -8.80737 -3.54188 6.46415 
427 1 -29.0668 6.35617 -9.54132 -3.53748 5.4839e-05 
428 1 -29.0668 3.8137 -9.54132 -3.53748 5.4839e-05 
605 1 -29.0668 5.08494 -11.7432 -3.53748 5.4839e-05 
606 1 -26.9912 5.08494 -10.2753 -3.54099 9.22385e-07 
607 1 -26.9912 6.35617 -12.4771 -3.54099 9.22385e-07 
608 1 -26.9912 3.8137 -12.4771 -3.54099 9.22385e-07 
772 1 -22.8392 2.54247 -11.7432 -3.54135 5.4092e-10 
609 1 -24.9151 6.35617 -11.0092 -3.54139 7.39026e-08 
619 1 -24.9151 3.8137 -11.0092 -3.54139 7.39026e-08 
623 1 -22.8392 6.35617 -9.54132 -3.54135 5.4092e-10 
624 1 -22.8392 3.8137 -9.54132 -3.54135 5.4092e-10 
773 1 -22.8392 5.08494 -11.7432 -3.54135 5.4092e-10 
785 1 -20.7632 2.54247 -10.2753 -3.54136 3.97689e-11 
774 1 -20.7632 5.08494 -10.2753 -3.54136 3.97689e-11 
775 1 -20.7632 6.35617 -12.4771 -3.54136 3.97689e-11 
776 1 -20.7632 3.8137 -12.4771 -3.54136 3.97689e-11 
777 1 -18.6872 6.35617 -11.0092 -3.54136 2.3459e-12 
787 1 -18.6872 3.8137 -11.0092 -3.54136 2.3459e-12 
904 1 -16.6113 2.54247 -11.7432 -3.54136 4.0449e-14 
917 1 -14.5353 2.54247 -10.2753 -3.54136 4.04496e-14 
791 1 -16.6113 6.35617 -9.54132 -3.54136 4.0449e-14 
792 1 -16.6113 3.8137 -9.54132 -3.54136 4.0449e-14 
905 1 -16.6113 5.08494 -11.7432 -3.54136 4.0449e-14 
906 1 -14.5353 5.08494 -10.2753 -3.54136 4.04496e-14 
907 1 -14.5353 6.35617 -12.4771 -3.54136 4.04496e-14 
908 1 -14.5353 3.8137 -12.4771 -3.54136 4.04496e-14 
1000 1 -10.3834 2.54247 -11.7432 -3.54136 3.97689e-11 
909 1 -12.4594 6.35617 -11.0092 -3.54136 2.3459e-12 
919 1 -12.4594 3.8137 -11.0092 -3.54136 2.3459e-12 
923 1 -10.3834 6.35617 -9.54132 -3.54136 3.97689e-11 
924 1 -10.3834 3.8137 -9.54132 -3.54136 3.97689e-11 
1001 1 -10.3834 5.08494 -11.7432 -3.54136 3.97689e-11 
1013 1 -8.30743 2.54247 -10.2753 -3.54135 5.4092e-10 
1002 1 -8.30743 5.08494 -10.2753 -3.54135 5.4092e-10 
1003 1 -8.30743 6.35617 -12.4771 -3.54135 5.4092e-10 
1004 1 -8.30743 3.8137 -12.4771 -3.54135 5.4092e-10 
1005 1 -6.23148 6.35617 -11.0092 -3.54139 7.39026e-08 
1015 1 -6.23148 3.8137 -11.0092 -3.54139 7.39026e-08 
1060 1 -4.15538 2.54247 -11.7432 -3.54099 9.22385e-07 
1072 1 -2.07983 2.54247 -10.2753 -3.53748 5.4839e-05 
1019 1 -4.15538 6.35617 -9.54132 -3.54099 9.22385e-07 
1020 1 -4.15538 3.8137 -9.54132 -3.54099 9.22385e-07 
1061 1 -4.15538 5.08494 -11.7432 -3.54099 9.22385e-07 
1062 1 -2.07983 5.08494 -10.2753 -3.53748 5.4839e-05 
1063 1 -2.07983 6.35617 -12.4771 -3.53748 5.4839e-05 
1064 1 -2.07983 3.8137 -12.4771 -3.53748 5.4839e-05 
1133 1 2.07983 2.54247 -10.2753 -3.53748 5.4839e-05 
1134 1 4.15538 2.54247 -11.7432 -3.54099 9.22385e-07 
1093 1 -3.50559e-14 3.8137 -11.0092 -3.54188 6.46415 
1094 1 -3.07711e-14 6.35617 -11.0092 -3.54188 6.46415 
1097 1 2.07983 3.8137 -12.4771 -3.53748 5.4839e-05 
1098 1 2.07983 6.35617 -12.4771 -3.53748 5.4839e-05 
1130 1 2.07983 5.08494 -10.2753 -3.53748 5.4839e-05 
1136 1 4.15538 3.8137 -9.54132 -3.54099 9.22385e-07 
1144 1 4.15538 6.35617 -9.54132 -3.54099 9.22385e-07 
1145 1 4.15538 5.08494 -11.7432 -3.54099 9.22385e-07 
1095 1 -3.24809e-14 2.54247 -13.2111 -3.54188 6.46415 
1092 1 -3.27534e-14 5.08494 -13.2111 -3.54188 6.46415 
1223 1 8.30743 2.54247 -10.2753 -3.54135 5.4092e-10 
1147 1 6.23148 3.8137 -11.0092 -3.54139 7.39026e-08 
1148 1 6.23148 6.35617 -11.0092 -3.54139 7.39026e-08 
1151 1 8.30743 3.8137 -12.4771 -3.54135 5.4092e-10 
1152 1 8.30743 6.35617 -12.4771 -3.54135 5.4092e-10 
1220 1 8.30743 5.08494 -10.2753 -3.54135 5.4092e-10 
1224 1 10.3834 2.54247 -11.7432 -3.54136 3.97689e-11 
1226 1 10.3834 3.8137 -9.54132 -3.54136 3.97689e-11 
1234 1 10.3834 6.35617 -9.54132 -3.54136 3.97689e-11 
1235 1 10.3834 5.08494 -11.7432 -3.54136 3.97689e-11 
1237 1 12.4594 3.8137 -11.0092 -3.54136 2.3459e-12 
1238 1 12.4594 6.35617 -11.0092 -3.54136 2.3459e-12 
1349 1 14.5353 2.54247 -10.2753 -3.54136 4.04498e-14 
1350 1 16.6113 2.54247 -11.7432 -3.54136 4.04493e-14 
1241 1 14.5353 3.8137 -12.4771 -3.54136 4.04498e-14 
1242 1 14.5353 6.35617 -12.4771 -3.54136 4.04498e-14 
1346 1 14.5353 5.08494 -10.2753 -3.54136 4.04498e-14 
1352 1 16.6113 3.8137 -9.54132 -3.54136 4.04493e-14 
1360 1 16.6113 6.35617 -9.54132 -3.54136 4.04493e-14 
1361 1 16.6113 5.08494 -11.7432 -3.54136 4.04493e-14 
1511 1 20.7632 2.54247 -10.2753 -3.54136 3.97689e-11 
1363 1 18.6872 3.8137 -11.0092 -3.54136 2.3459e-12 
1364 1 18.6872 6.35617 -11.0092 -3.54136 2.3459e-12 
1367 1 20.7632 3.8137 -12.4771 -3.54136 3.97689e-11 
1368 1 20.7632 6.35617 -12.4771 -3.54136 3.97689e-11 
1508 1 20.7632 5.08494 -10.2753 -3.54136 3.97689e-11 
1512 1 22.8392 2.54247 -11.7432 -3.54135 5.4092e-10 
1514 1 22.8392 3.8137 -9.54132 -3.54135 5.4092e-10 
1522 1 22.8392 6.35617 -9.54132 -3.54135 5.4092e-10 
1523 1 22.8392 5.08494 -11.7432 -3.54135 5.4092e-10 
1525 1 24.9151 3.8137 -11.0092 -3.54139 7.39026e-08 
1526 1 24.9151 6.35617 -11.0092 -3.54139 7.39026e-08 
1704 1 26.9912 2.54247 -10.2753 -3.54099 9.22385e-07 
1705 1 29.0668 2.54247 -11.7432 -3.53748 5.4839e-05 
1529 1 26.9912 3.8137 -12.4771 -3.54099 9.22385e-07 
1530 1 26.9912 6.35617 -12.4771 -3.54099 9.22385e-07 
1701 1 26.9912 5.08494 -10.2753 -3.54099 9.22385e-07 
1707 1 29.0668 3.8137 -9.54132 -3.53748 5.4839e-05 
1709 1 29.0668 6.35617 -9.54132 -3.53748 5.4839e-05 
1710 1 29.0668 5.08494 -11.7432 -3.53748 5.4839e-05 
281 1 -31.1466 -5.08494 -4.40368 -3.54188 6.46415 
282 1 -31.1466 -3.8137 -6.60553 -3.54188 6.46415 
283 1 -31.1466 -6.35617 -6.60553 -3.54188 6.46415 
287 1 -29.0668 -3.8137 -5.13763 -3.53748 5.4839e-05 
301 1 -31.1466 -7.62741 -4.40368 -3.54188 6.46415 
303 1 -29.0668 -6.35617 -5.13763 -3.53748 5.4839e-05 
449 1 -29.0668 -5.08494 -7.33947 -3.53748 5.4839e-05 
455 1 -26.9912 -3.8137 -8.07342 -3.54099 9.22385e-07 
469 1 -29.0668 -7.62741 -7.33947 -3.53748 5.4839e-05 
470 1 -26.9912 -7.62741 -5.87158 -3.54099 9.22385e-07 
471 1 -26.9912 -6.35617 -8.07342 -3.54099 9.22385e-07 
472 1 -26.9912 -5.08494 -5.87158 -3.54099 9.22385e-07 
650 1 -24.9151 -7.62741 -8.80737 -3.54139 7.39026e-08 
652 1 -24.9151 -5.08494 -8.80737 -3.54139 7.39026e-08 
473 1 -24.9151 -5.08494 -4.40368 -3.54139 7.39026e-08 
474 1 -24.9151 -3.8137 -6.60553 -3.54139 7.39026e-08 
475 1 -24.9151 -6.35617 -6.60553 -3.54139 7.39026e-08 
479 1 -22.8392 -3.8137 -5.13763 -3.54135 5.4092e-10 
493 1 -24.9151 -7.62741 -4.40368 -3.54139 7.39026e-08 
495 1 -22.8392 -6.35617 -5.13763 -3.54135 5.4092e-10 
653 1 -22.8392 -5.08494 -7.33947 -3.54135 5.4092e-10 
673 1 -22.8392 -7.62741 -7.33947 -3.54135 5.4092e-10 
818 1 -18.6872 -7.62741 -8.80737 -3.54136 2.3459e-12 
820 1 -18.6872 -5.08494 -8.80737 -3.54136 2.3459e-12 
659 1 -20.7632 -3.8137 -8.07342 -3.54136 3.97689e-11 
674 1 -20.7632 -7.62741 -5.87158 -3.54136 3.97689e-11 
675 1 -20.7632 -6.35617 -8.07342 -3.54136 3.97689e-11 
676 1 -20.7632 -5.08494 -5.87158 -3.54136 3.97689e-11 
677 1 -18.6872 -5.08494 -4.40368 -3.54136 2.3459e-12 
678 1 -18.6872 -3.8137 -6.60553 -3.54136 2.3459e-12 
679 1 -18.6872 -6.35617 -6.60553 -3.54136 2.3459e-12 
697 1 -18.6872 -7.62741 -4.40368 -3.54136 2.3459e-12 
683 1 -16.6113 -3.8137 -5.13763 -3.54136 4.0449e-14 
699 1 -16.6113 -6.35617 -5.13763 -3.54136 4.0449e-14 
821 1 -16.6113 -5.08494 -7.33947 -3.54136 4.0449e-14 
827 1 -14.5353 -3.8137 -8.07342 -3.54136 4.04497e-14 
841 1 -16.6113 -7.62741 -7.33947 -3.54136 4.0449e-14 
842 1 -14.5353 -7.62741 -5.87158 -3.54136 4.04496e-14 
843 1 -14.5353 -6.35617 -8.07342 -3.54136 4.04497e-14 
844 1 -14.5353 -5.08494 -5.87158 -3.54136 4.04496e-14 
950 1 -12.4594 -7.62741 -8.80737 -3.54136 2.3459e-12 
952 1 -12.4594 -5.08494 -8.80737 -3.54136 2.3459e-12 
845 1 -12.4594 -5.08494 -4.40368 -3.54136 2.3459e-12 
846 1 -12.4594 -3.8137 -6.60553 -3.54136 2.3459e-12 
847 1 -12.4594 -6.35617 -6.60553 -3.54136 2.3459e-12 
851 1 -10.3834 -3.8137 -5.13763 -3.54136 3.97689e-11 
865 1 -12.4594 -7.62741 -4.40368 -3.54136 2.3459e-12 
867 1 -10.3834 -6.35617 -5.13763 -3.54136 3.97689e-11 
953 1 -10.3834 -5.08494 -7.33947 -3.54136 3.97689e-11 
972 1 -10.3834 -7.62741 -7.33947 -3.54136 3.97689e-11 
1042 1 -6.23148 -7.62741 -8.80737 -3.54139 7.39026e-08 
1044 1 -6.23148 -5.08494 -8.80737 -3.54139 7.39026e-08 
959 1 -8.30743 -3.8137 -8.07342 -3.54135 5.4092e-10 
973 1 -8.30743 -7.62741 -5.87158 -3.54135 5.4092e-10 
974 1 -8.30743 -6.35617 -8.07342 -3.54135 5.4092e-10 
975 1 -8.30743 -5.08494 -5.87158 -3.54135 5.4092e-10 
977 1 -6.23148 -3.8137 -6.60553 -3.54139 7.39026e-08 
978 1 -6.23148 -6.35617 -6.60553 -3.54139 7.39026e-08 
982 1 -4.15538 -3.8137 -5.13763 -3.54099 9.22385e-07 
990 1 -4.15538 -6.35617 -5.13763 -3.54099 9.22385e-07 
1045 1 -4.15538 -5.08494 -7.33947 -3.54099 9.22385e-07 
1051 1 -2.07983 -3.8137 -8.07342 -3.53748 5.4839e-05 
1053 1 -4.15538 -7.62741 -7.33947 -3.54099 9.22385e-07 
1054 1 -2.07983 -7.62741 -5.87158 -3.53748 5.4839e-05 
1055 1 -2.07983 -6.35617 -8.07342 -3.53748 5.4839e-05 
1056 1 -2.07983 -5.08494 -5.87158 -3.53748 5.4839e-05 
1099 1 -3.20636e-14 -7.62741 -8.80737 -3.54188 6.46415 
1104 1 -3.18013e-14 -5.08494 -8.80737 -3.54188 6.46415 
1100 1 -3.28295e-14 -6.35617 -6.60553 -3.54188 6.46415 
1102 1 -3.27259e-14 -3.8137 -6.60553 -3.54188 6.46415 
1106 1 2.07983 -6.35617 -8.07342 -3.53748 5.4839e-05 
1107 1 2.07983 -3.8137 -8.07342 -3.53748 5.4839e-05 
1157 1 2.07983 -7.62741 -5.87158 -3.53748 5.4839e-05 
1166 1 2.07983 -5.08494 -5.87158 -3.53748 5.4839e-05 
1167 1 4.15538 -5.08494 -7.33947 -3.54099 9.22385e-07 
1168 1 4.15538 -6.35617 -5.13763 -3.54099 9.22385e-07 
1169 1 4.15538 -3.8137 -5.13763 -3.54099 9.22385e-07 
1170 1 4.15538 -7.62741 -7.33947 -3.54099 9.22385e-07 
1171 1 6.23148 -7.62741 -8.80737 -3.54139 7.39026e-08 
1188 1 6.23148 -5.08494 -8.80737 -3.54139 7.39026e-08 
1172 1 6.23148 -6.35617 -6.60553 -3.54139 7.39026e-08 
1186 1 6.23148 -3.8137 -6.60553 -3.54139 7.39026e-08 
1190 1 8.30743 -6.35617 -8.07342 -3.54135 5.4092e-10 
1191 1 8.30743 -3.8137 -8.07342 -3.54135 5.4092e-10 
1271 1 8.30743 -7.62741 -5.87158 -3.54135 5.4092e-10 
1290 1 8.30743 -5.08494 -5.87158 -3.54135 5.4092e-10 
1295 1 12.4594 -7.62741 -8.80737 -3.54136 2.3459e-12 
1314 1 12.4594 -5.08494 -8.80737 -3.54136 2.3459e-12 
1291 1 10.3834 -5.08494 -7.33947 -3.54136 3.97689e-11 
1292 1 10.3834 -6.35617 -5.13763 -3.54136 3.97689e-11 
1293 1 10.3834 -3.8137 -5.13763 -3.54136 3.97689e-11 
1294 1 10.3834 -7.62741 -7.33947 -3.54136 3.97689e-11 
1296 1 12.4594 -6.35617 -6.60553 -3.54136 2.3459e-12 
1312 1 12.4594 -3.8137 -6.60553 -3.54136 2.3459e-12 
1429 1 12.4594 -5.08494 -4.40368 -3.54136 2.3459e-12 
1432 1 12.4594 -7.62741 -4.40368 -3.54136 2.3459e-12 
1316 1 14.5353 -6.35617 -8.07342 -3.54136 4.04499e-14 
1317 1 14.5353 -3.8137 -8.07342 -3.54136 4.04499e-14 
1433 1 14.5353 -7.62741 -5.87158 -3.54136 4.04498e-14 
1452 1 14.5353 -5.08494 -5.87158 -3.54136 4.04498e-14 
1453 1 16.6113 -5.08494 -7.33947 -3.54136 4.04492e-14 
1454 1 16.6113 -6.35617 -5.13763 -3.54136 4.04492e-14 
1455 1 16.6113 -3.8137 -5.13763 -3.54136 4.04492e-14 
1456 1 16.6113 -7.62741 -7.33947 -3.54136 4.04493e-14 
1457 1 18.6872 -7.62741 -8.80737 -3.54136 2.3459e-12 
1476 1 18.6872 -5.08494 -8.80737 -3.54136 2.3459e-12 
1458 1 18.6872 -6.35617 -6.60553 -3.54136 2.3459e-12 
1474 1 18.6872 -3.8137 -6.60553 -3.54136 2.3459e-12 
1478 1 20.7632 -6.35617 -8.07342 -3.54136 3.97689e-11 
1479 1 20.7632 -3.8137 -8.07342 -3.54136 3.97689e-11 
1627 1 18.6872 -5.08494 -4.40368 -3.54136 2.3459e-12 
1630 1 18.6872 -7.62741 -4.40368 -3.54136 2.3459e-12 
1631 1 20.7632 -7.62741 -5.87158 -3.54136 3.97689e-11 
1650 1 20.7632 -5.08494 -5.87158 -3.54136 3.97689e-11 
1655 1 24.9151 -7.62741 -8.80737 -3.54139 7.39026e-08 
1674 1 24.9151 -5.08494 -8.80737 -3.54139 7.39026e-08 
1651 1 22.8392 -5.08494 -7.33947 -3.54135 5.4092e-10 
1652 1 22.8392 -6.35617 -5.13763 -3.54135 5.4092e-10 
1653 1 22.8392 -3.8137 -5.13763 -3.54135 5.4092e-10 
1654 1 22.8392 -7.62741 -7.33947 -3.54135 5.4092e-10 
1656 1 24.9151 -6.35617 -6.60553 -3.54139 7.39026e-08 
1672 1 24.9151 -3.8137 -6.60553 -3.54139 7.39026e-08 
1825 1 24.9151 -5.08494 -4.40368 -3.54139 7.39026e-08 
1828 1 24.9151 -7.62741 -4.40368 -3.54139 7.39026e-08 
1676 1 26.9912 -6.35617 -8.07342 -3.54099 9.22385e-07 
1677 1 26.9912 -3.8137 -8.07342 -3.54099 9.22385e-07 
1829 1 26.9912 -7.62741 -5.87158 -3.54099 9.22385e-07 
1848 1 26.9912 -5.08494 -5.87158 -3.54099 9.22385e-07 
1849 1 29.0668 -5.08494 -7.33947 -3.53748 5.4839e-05 
1850 1 29.0668 -6.35617 -5.13763 -3.53748 5.4839e-05 
1851 1 29.0668 -3.8137 -5.13763 -3.53748 5.4839e-05 
1852 1 29.0668 -7.62741 -7.33947 -3.53748 5.4839e-05 
269 1 -31.1466 3.97172e-13 -4.40368 -3.54188 6.46415 
270 1 -31.1466 1.27123 -6.60553 -3.54188 6.46415 
271 1 -31.1466 -1.27123 -6.60553 -3.54188 6.46415 
275 1 -29.0668 1.27123 -5.13763 -3.53748 5.4839e-05 
284 1 -31.1466 -2.54247 -4.40368 -3.54188 6.46415 
286 1 -29.0668 -1.27123 -5.13763 -3.53748 5.4839e-05 
434 1 -29.0668 4.00371e-13 -7.33947 -3.53748 5.4839e-05 
440 1 -26.9912 1.27123 -8.07342 -3.54099 9.22385e-07 
452 1 -29.0668 -2.54247 -7.33947 -3.53748 5.4839e-05 
453 1 -26.9912 -2.54247 -5.87158 -3.54099 9.22385e-07 
454 1 -26.9912 -1.27123 -8.07342 -3.54099 9.22385e-07 
456 1 -26.9912 3.94695e-13 -5.87158 -3.54099 9.22385e-07 
633 1 -24.9151 -2.54247 -8.80737 -3.54139 7.39026e-08 
636 1 -24.9151 3.93652e-13 -8.80737 -3.54139 7.39026e-08 
457 1 -24.9151 3.95921e-13 -4.40368 -3.54139 7.39026e-08 
458 1 -24.9151 1.27123 -6.60553 -3.54139 7.39026e-08 
459 1 -24.9151 -1.27123 -6.60553 -3.54139 7.39026e-08 
463 1 -22.8392 1.27123 -5.13763 -3.54135 5.4092e-10 
476 1 -24.9151 -2.54247 -4.40368 -3.54139 7.39026e-08 
478 1 -22.8392 -1.27123 -5.13763 -3.54135 5.4092e-10 
637 1 -22.8392 3.95935e-13 -7.33947 -3.54135 5.4092e-10 
656 1 -22.8392 -2.54247 -7.33947 -3.54135 5.4092e-10 
801 1 -18.6872 -2.54247 -8.80737 -3.54136 2.3459e-12 
804 1 -18.6872 3.9573e-13 -8.80737 -3.54136 2.3459e-12 
643 1 -20.7632 1.27123 -8.07342 -3.54136 3.97689e-11 
657 1 -20.7632 -2.54247 -5.87158 -3.54136 3.97689e-11 
658 1 -20.7632 -1.27123 -8.07342 -3.54136 3.97689e-11 
660 1 -20.7632 3.9662e-13 -5.87158 -3.54136 3.97689e-11 
661 1 -18.6872 3.96474e-13 -4.40368 -3.54136 2.3459e-12 
662 1 -18.6872 1.27123 -6.60553 -3.54136 2.3459e-12 
663 1 -18.6872 -1.27123 -6.60553 -3.54136 2.3459e-12 
680 1 -18.6872 -2.54247 -4.40368 -3.54136 2.3459e-12 
667 1 -16.6113 1.27123 -5.13763 -3.54136 4.0449e-14 
682 1 -16.6113 -1.27123 -5.13763 -3.54136 4.0449e-14 
805 1 -16.6113 3.96095e-13 -7.33947 -3.54136 4.0449e-14 
811 1 -14.5353 1.27123 -8.07342 -3.54136 4.04497e-14 
824 1 -16.6113 -2.54247 -7.33947 -3.54136 4.0449e-14 
825 1 -14.5353 -2.54247 -5.87158 -3.54136 4.04496e-14 
826 1 -14.5353 -1.27123 -8.07342 -3.54136 4.04497e-14 
828 1 -14.5353 3.96124e-13 -5.87158 -3.54136 4.04496e-14 
933 1 -12.4594 -2.54247 -8.80737 -3.54136 2.3459e-12 
936 1 -12.4594 3.95828e-13 -8.80737 -3.54136 2.3459e-12 
829 1 -12.4594 3.95705e-13 -4.40368 -3.54136 2.3459e-12 
830 1 -12.4594 1.27123 -6.60553 -3.54136 2.3459e-12 
831 1 -12.4594 -1.27123 -6.60553 -3.54136 2.3459e-12 
835 1 -10.3834 1.27123 -5.13763 -3.54136 3.97689e-11 
848 1 -12.4594 -2.54247 -4.40368 -3.54136 2.3459e-12 
850 1 -10.3834 -1.27123 -5.13763 -3.54136 3.97689e-11 
937 1 -10.3834 3.96946e-13 -7.33947 -3.54136 3.97689e-11 
956 1 -10.3834 -2.54247 -7.33947 -3.54136 3.97689e-11 
1029 1 -6.23148 -2.54247 -8.80737 -3.54139 7.39026e-08 
1032 1 -6.23148 3.95544e-13 -8.80737 -3.54139 7.39026e-08 
943 1 -8.30743 1.27123 -8.07342 -3.54135 5.4092e-10 
957 1 -8.30743 -2.54247 -5.87158 -3.54135 5.4092e-10 
958 1 -8.30743 -1.27123 -8.07342 -3.54135 5.4092e-10 
960 1 -8.30743 3.94712e-13 -5.87158 -3.54135 5.4092e-10 
962 1 -6.23148 1.27123 -6.60553 -3.54139 7.39026e-08 
963 1 -6.23148 -1.27123 -6.60553 -3.54139 7.39026e-08 
967 1 -4.15538 1.27123 -5.13763 -3.54099 9.22385e-07 
981 1 -4.15538 -1.27123 -5.13763 -3.54099 9.22385e-07 
1033 1 -4.15538 3.95826e-13 -7.33947 -3.54099 9.22385e-07 
1039 1 -2.07983 1.27123 -8.07342 -3.53748 5.4839e-05 
1048 1 -4.15538 -2.54247 -7.33947 -3.54099 9.22385e-07 
1049 1 -2.07983 -2.54247 -5.87158 -3.53748 5.4839e-05 
1050 1 -2.07983 -1.27123 -8.07342 -3.53748 5.4839e-05 
1052 1 -2.07983 4.00531e-13 -5.87158 -3.53748 5.4839e-05 
1101 1 -2.76871e-14 -2.54247 -8.80737 -3.54188 6.46415 
1114 1 -3.21542e-14 3.99814e-13 -8.80737 -3.54188 6.46415 
1103 1 -3.27948e-14 -1.27123 -6.60553 -3.54188 6.46415 
1112 1 -3.30375e-14 1.27123 -6.60553 -3.54188 6.46415 
1116 1 2.07983 -1.27123 -8.07342 -3.53748 5.4839e-05 
1117 1 2.07983 1.27123 -8.07342 -3.53748 5.4839e-05 
1163 1 2.07983 -2.54247 -5.87158 -3.53748 5.4839e-05 
1180 1 2.07983 4.00504e-13 -5.87158 -3.53748 5.4839e-05 
1181 1 4.15538 3.9505e-13 -7.33947 -3.54099 9.22385e-07 
1182 1 4.15538 -1.27123 -5.13763 -3.54099 9.22385e-07 
1183 1 4.15538 1.27123 -5.13763 -3.54099 9.22385e-07 
1184 1 4.15538 -2.54247 -7.33947 -3.54099 9.22385e-07 
1185 1 6.23148 -2.54247 -8.80737 -3.54139 7.39026e-08 
1204 1 6.23148 3.954e-13 -8.80737 -3.54139 7.39026e-08 
1187 1 6.23148 -1.27123 -6.60553 -3.54139 7.39026e-08 
1202 1 6.23148 1.27123 -6.60553 -3.54139 7.39026e-08 
1206 1 8.30743 -1.27123 -8.07342 -3.54135 5.4092e-10 
1207 1 8.30743 1.27123 -8.07342 -3.54135 5.4092e-10 
1287 1 8.30743 -2.54247 -5.87158 -3.54135 5.4092e-10 
1306 1 8.30743 3.95238e-13 -5.87158 -3.54135 5.4092e-10 
1311 1 12.4594 -2.54247 -8.80737 -3.54136 2.3459e-12 
1330 1 12.4594 3.96443e-13 -8.80737 -3.54136 2.3459e-12 
1307 1 10.3834 3.97266e-13 -7.33947 -3.54136 3.97689e-11 
1308 1 10.3834 -1.27123 -5.13763 -3.54136 3.97689e-11 
1309 1 10.3834 1.27123 -5.13763 -3.54136 3.97689e-11 
1310 1 10.3834 -2.54247 -7.33947 -3.54136 3.97689e-11 
1313 1 12.4594 -1.27123 -6.60553 -3.54136 2.3459e-12 
1328 1 12.4594 1.27123 -6.60553 -3.54136 2.3459e-12 
1445 1 12.4594 3.96287e-13 -4.40368 -3.54136 2.3459e-12 
1448 1 12.4594 -2.54247 -4.40368 -3.54136 2.3459e-12 
1332 1 14.5353 -1.27123 -8.07342 -3.54136 4.04499e-14 
1333 1 14.5353 1.27123 -8.07342 -3.54136 4.04499e-14 
1449 1 14.5353 -2.54247 -5.87158 -3.54136 4.04498e-14 
1468 1 14.5353 3.95163e-13 -5.87158 -3.54136 4.04498e-14 
1469 1 16.6113 3.94503e-13 -7.33947 -3.54136 4.04492e-14 
1470 1 16.6113 -1.27123 -5.13763 -3.54136 4.04492e-14 
1471 1 16.6113 1.27123 -5.13763 -3.54136 4.04492e-14 