ITEM: TIMESTEP
62
ITEM: NUMBER OF ATOMS
2160
ITEM: BOX BOUNDS pp pp pp
-3.1146627994674567e+01 3.1146627994674567e+01
-7.6274028998451220e+00 7.6274028998451220e+00
-1.3211049352327519e+01 1.3211049352327519e+01
ITEM: ATOMS id type x y z c_eng c_csym 
432 1 -31.1466 -3.8137 -11.0092 -3.54196 6.46414 
446 1 -31.1466 -7.6274 -8.80737 -3.54196 6.46414 
447 1 -31.1466 -6.35617 -11.0092 -3.54196 6.46414 
448 1 -31.1466 -5.08494 -8.80737 -3.54196 6.46414 
450 1 -29.0664 -3.8137 -9.54131 -3.53747 7.5294e-05 
451 1 -29.0664 -6.35617 -9.54131 -3.53747 7.5294e-05 
627 1 -29.0664 -7.6274 -11.7432 -3.53747 7.5294e-05 
628 1 -29.0664 -5.08494 -11.7432 -3.53747 7.5294e-05 
629 1 -26.9911 -5.08494 -10.2753 -3.54093 1.31221e-06 
630 1 -26.9911 -3.8137 -12.4771 -3.54093 1.31221e-06 
631 1 -26.9911 -6.35617 -12.4771 -3.54093 1.31221e-06 
649 1 -26.9911 -7.6274 -10.2753 -3.54093 1.31221e-06 
635 1 -24.9152 -3.8137 -11.0092 -3.54139 4.66133e-09 
651 1 -24.9152 -6.35617 -11.0092 -3.54139 4.66133e-09 
654 1 -22.8392 -3.8137 -9.54131 -3.54136 3.14549e-11 
655 1 -22.8392 -6.35617 -9.54131 -3.54136 3.14549e-11 
795 1 -22.8392 -7.6274 -11.7432 -3.54136 3.14549e-11 
796 1 -22.8392 -5.08494 -11.7432 -3.54136 3.14549e-11 
797 1 -20.7632 -5.08494 -10.2753 -3.54136 3.93724e-12 
798 1 -20.7632 -3.8137 -12.4771 -3.54136 3.93724e-12 
799 1 -20.7632 -6.35617 -12.4771 -3.54136 3.93724e-12 
803 1 -18.6873 -3.8137 -11.0092 -3.54136 1.98673e-11 
817 1 -20.7632 -7.6274 -10.2753 -3.54136 3.93724e-12 
819 1 -18.6873 -6.35617 -11.0092 -3.54136 1.98673e-11 
822 1 -16.6113 -3.8137 -9.54131 -3.54136 4.53387e-12 
823 1 -16.6113 -6.35617 -9.54131 -3.54136 4.53387e-12 
927 1 -16.6113 -7.6274 -11.7432 -3.54136 4.53387e-12 
928 1 -16.6113 -5.08494 -11.7432 -3.54136 4.53387e-12 
929 1 -14.5353 -5.08494 -10.2753 -3.54136 4.53388e-12 
930 1 -14.5353 -3.8137 -12.4771 -3.54136 4.53388e-12 
931 1 -14.5353 -6.35617 -12.4771 -3.54136 4.53388e-12 
949 1 -14.5353 -7.6274 -10.2753 -3.54136 4.53388e-12 
935 1 -12.4594 -3.8137 -11.0092 -3.54136 1.98673e-11 
951 1 -12.4594 -6.35617 -11.0092 -3.54136 1.98673e-11 
954 1 -10.3834 -3.8137 -9.54131 -3.54136 3.93724e-12 
955 1 -10.3834 -6.35617 -9.54131 -3.54136 3.93724e-12 
1023 1 -10.3834 -7.6274 -11.7432 -3.54136 3.93724e-12 
1024 1 -10.3834 -5.08494 -11.7432 -3.54136 3.93724e-12 
1025 1 -8.30744 -5.08494 -10.2753 -3.54136 3.14549e-11 
1026 1 -8.30744 -3.8137 -12.4771 -3.54136 3.14549e-11 
1027 1 -8.30744 -6.35617 -12.4771 -3.54136 3.14549e-11 
1031 1 -6.23147 -3.8137 -11.0092 -3.54139 4.66133e-09 
1041 1 -8.30744 -7.6274 -10.2753 -3.54136 3.14549e-11 
1043 1 -6.23147 -6.35617 -11.0092 -3.54139 4.66133e-09 
1046 1 -4.15554 -3.8137 -9.54131 -3.54093 1.31221e-06 
1047 1 -4.15554 -6.35617 -9.54131 -3.54093 1.31221e-06 
1074 1 -4.15554 -7.6274 -11.7432 -3.54093 1.31221e-06 
1075 1 -4.15554 -5.08494 -11.7432 -3.54093 1.31221e-06 
1076 1 -2.08028 -5.08494 -10.2753 -3.53747 7.5294e-05 
1077 1 -2.08028 -3.8137 -12.4771 -3.53747 7.5294e-05 
1078 1 -2.08028 -6.35617 -12.4771 -3.53747 7.5294e-05 
1080 1 -2.08028 -7.6274 -10.2753 -3.53747 7.5294e-05 
1082 1 -2.48629e-14 -6.35617 -11.0092 -3.54196 6.46414 
1083 1 -2.48616e-14 -3.8137 -11.0092 -3.54196 6.46414 
1085 1 2.08028 -6.35617 -12.4771 -3.53747 7.5294e-05 
1090 1 2.08028 -3.8137 -12.4771 -3.53747 7.5294e-05 
1105 1 2.08028 -5.08494 -10.2753 -3.53747 7.5294e-05 
1108 1 2.08028 -7.6274 -10.2753 -3.53747 7.5294e-05 
1109 1 4.15554 -7.6274 -11.7432 -3.54093 1.31221e-06 
1110 1 4.15554 -6.35617 -9.54131 -3.54093 1.31221e-06 
1120 1 4.15554 -3.8137 -9.54131 -3.54093 1.31221e-06 
1122 1 4.15554 -5.08494 -11.7432 -3.54093 1.31221e-06 
1081 1 -2.48626e-14 -5.08494 -13.211 -3.54196 6.46414 
1084 1 -2.48613e-14 -7.6274 -13.211 -3.54196 6.46414 
1124 1 6.23147 -6.35617 -11.0092 -3.54139 4.66133e-09 
1125 1 6.23147 -3.8137 -11.0092 -3.54139 4.66133e-09 
1127 1 8.30744 -6.35617 -12.4771 -3.54136 3.14549e-11 
1142 1 8.30744 -3.8137 -12.4771 -3.54136 3.14549e-11 
1189 1 8.30744 -5.08494 -10.2753 -3.54136 3.14549e-11 
1192 1 8.30744 -7.6274 -10.2753 -3.54136 3.14549e-11 
1193 1 10.3834 -7.6274 -11.7432 -3.54136 3.93724e-12 
1194 1 10.3834 -6.35617 -9.54131 -3.54136 3.93724e-12 
1210 1 10.3834 -3.8137 -9.54131 -3.54136 3.93724e-12 
1212 1 10.3834 -5.08494 -11.7432 -3.54136 3.93724e-12 
1214 1 12.4594 -6.35617 -11.0092 -3.54136 1.98673e-11 
1215 1 12.4594 -3.8137 -11.0092 -3.54136 1.98673e-11 
1217 1 14.5353 -6.35617 -12.4771 -3.54136 4.53389e-12 
1232 1 14.5353 -3.8137 -12.4771 -3.54136 4.53389e-12 
1315 1 14.5353 -5.08494 -10.2753 -3.54136 4.53389e-12 
1318 1 14.5353 -7.6274 -10.2753 -3.54136 4.53389e-12 
1319 1 16.6113 -7.6274 -11.7432 -3.54136 4.53387e-12 
1320 1 16.6113 -6.35617 -9.54131 -3.54136 4.53388e-12 
1336 1 16.6113 -3.8137 -9.54131 -3.54136 4.53388e-12 
1338 1 16.6113 -5.08494 -11.7432 -3.54136 4.53387e-12 
1340 1 18.6873 -6.35617 -11.0092 -3.54136 1.98673e-11 
1341 1 18.6873 -3.8137 -11.0092 -3.54136 1.98673e-11 
1343 1 20.7632 -6.35617 -12.4771 -3.54136 3.93724e-12 
1358 1 20.7632 -3.8137 -12.4771 -3.54136 3.93724e-12 
1477 1 20.7632 -5.08494 -10.2753 -3.54136 3.93724e-12 
1480 1 20.7632 -7.6274 -10.2753 -3.54136 3.93724e-12 
1481 1 22.8392 -7.6274 -11.7432 -3.54136 3.14549e-11 
1482 1 22.8392 -6.35617 -9.54131 -3.54136 3.14549e-11 
1498 1 22.8392 -3.8137 -9.54131 -3.54136 3.14549e-11 
1500 1 22.8392 -5.08494 -11.7432 -3.54136 3.14549e-11 
1502 1 24.9152 -6.35617 -11.0092 -3.54139 4.66133e-09 
1503 1 24.9152 -3.8137 -11.0092 -3.54139 4.66133e-09 
1505 1 26.9911 -6.35617 -12.4771 -3.54093 1.31221e-06 
1520 1 26.9911 -3.8137 -12.4771 -3.54093 1.31221e-06 
1675 1 26.9911 -5.08494 -10.2753 -3.54093 1.31221e-06 
1678 1 26.9911 -7.6274 -10.2753 -3.54093 1.31221e-06 
1679 1 29.0664 -7.6274 -11.7432 -3.53747 7.5294e-05 
1680 1 29.0664 -6.35617 -9.54131 -3.53747 7.5294e-05 
1696 1 29.0664 -3.8137 -9.54131 -3.53747 7.5294e-05 
1698 1 29.0664 -5.08494 -11.7432 -3.53747 7.5294e-05 
424 1 -31.1466 1.27123 -11.0092 -3.54196 6.46414 
430 1 -31.1466 -2.54247 -8.80737 -3.54196 6.46414 
431 1 -31.1466 -1.27123 -11.0092 -3.54196 6.46414 
433 1 -31.1466 4.08562e-13 -8.80737 -3.54196 6.46414 
435 1 -29.0664 1.27123 -9.54131 -3.53747 7.5294e-05 
436 1 -29.0664 -1.27123 -9.54131 -3.53747 7.5294e-05 
612 1 -29.0664 -2.54247 -11.7432 -3.53747 7.5294e-05 
613 1 -29.0664 4.01459e-13 -11.7432 -3.53747 7.5294e-05 
614 1 -26.9911 3.92578e-13 -10.2753 -3.54093 1.31221e-06 
615 1 -26.9911 1.27123 -12.4771 -3.54093 1.31221e-06 
616 1 -26.9911 -1.27123 -12.4771 -3.54093 1.31221e-06 
632 1 -26.9911 -2.54247 -10.2753 -3.54093 1.31221e-06 
620 1 -24.9152 1.27123 -11.0092 -3.54139 4.66133e-09 
634 1 -24.9152 -1.27123 -11.0092 -3.54139 4.66133e-09 
638 1 -22.8392 1.27123 -9.54131 -3.54136 3.14549e-11 
639 1 -22.8392 -1.27123 -9.54131 -3.54136 3.14549e-11 
780 1 -22.8392 -2.54247 -11.7432 -3.54136 3.14549e-11 
781 1 -22.8392 3.9258e-13 -11.7432 -3.54136 3.14549e-11 
782 1 -20.7632 3.92579e-13 -10.2753 -3.54136 3.93724e-12 
783 1 -20.7632 1.27123 -12.4771 -3.54136 3.93724e-12 
784 1 -20.7632 -1.27123 -12.4771 -3.54136 3.93724e-12 
788 1 -18.6873 1.27123 -11.0092 -3.54136 1.98673e-11 
800 1 -20.7632 -2.54247 -10.2753 -3.54136 3.93724e-12 
802 1 -18.6873 -1.27123 -11.0092 -3.54136 1.98673e-11 
806 1 -16.6113 1.27123 -9.54131 -3.54136 4.53387e-12 
807 1 -16.6113 -1.27123 -9.54131 -3.54136 4.53387e-12 
912 1 -16.6113 -2.54247 -11.7432 -3.54136 4.53387e-12 
913 1 -16.6113 3.92579e-13 -11.7432 -3.54136 4.53387e-12 
914 1 -14.5353 3.92579e-13 -10.2753 -3.54136 4.53388e-12 
915 1 -14.5353 1.27123 -12.4771 -3.54136 4.53388e-12 
916 1 -14.5353 -1.27123 -12.4771 -3.54136 4.53388e-12 
932 1 -14.5353 -2.54247 -10.2753 -3.54136 4.53388e-12 
920 1 -12.4594 1.27123 -11.0092 -3.54136 1.98673e-11 
934 1 -12.4594 -1.27123 -11.0092 -3.54136 1.98673e-11 
938 1 -10.3834 1.27123 -9.54131 -3.54136 3.93724e-12 
939 1 -10.3834 -1.27123 -9.54131 -3.54136 3.93724e-12 
1008 1 -10.3834 -2.54247 -11.7432 -3.54136 3.93724e-12 
1009 1 -10.3834 3.92579e-13 -11.7432 -3.54136 3.93724e-12 
1010 1 -8.30744 3.92579e-13 -10.2753 -3.54136 3.14549e-11 
1011 1 -8.30744 1.27123 -12.4771 -3.54136 3.14549e-11 
1012 1 -8.30744 -1.27123 -12.4771 -3.54136 3.14549e-11 
1016 1 -6.23147 1.27123 -11.0092 -3.54139 4.66133e-09 
1028 1 -8.30744 -2.54247 -10.2753 -3.54136 3.14549e-11 
1030 1 -6.23147 -1.27123 -11.0092 -3.54139 4.66133e-09 
1034 1 -4.15554 1.27123 -9.54131 -3.54093 1.31221e-06 
1035 1 -4.15554 -1.27123 -9.54131 -3.54093 1.31221e-06 
1067 1 -4.15554 -2.54247 -11.7432 -3.54093 1.31221e-06 
1068 1 -4.15554 3.92579e-13 -11.7432 -3.54093 1.31221e-06 
1069 1 -2.08028 4.0146e-13 -10.2753 -3.53747 7.5294e-05 
1070 1 -2.08028 1.27123 -12.4771 -3.53747 7.5294e-05 
1071 1 -2.08028 -1.27123 -12.4771 -3.53747 7.5294e-05 
1079 1 -2.08028 -2.54247 -10.2753 -3.53747 7.5294e-05 
1087 1 -2.48612e-14 -1.27123 -11.0092 -3.54196 6.46414 
1088 1 -2.48615e-14 1.27123 -11.0092 -3.54196 6.46414 
1091 1 2.08028 -1.27123 -12.4771 -3.53747 7.5294e-05 
1096 1 2.08028 1.27123 -12.4771 -3.53747 7.5294e-05 
1115 1 2.08028 4.08563e-13 -10.2753 -3.53747 7.5294e-05 
1118 1 2.08028 -2.54247 -10.2753 -3.53747 7.5294e-05 
1119 1 4.15554 -2.54247 -11.7432 -3.54093 1.31221e-06 
1121 1 4.15554 -1.27123 -9.54131 -3.54093 1.31221e-06 
1135 1 4.15554 1.27123 -9.54131 -3.54093 1.31221e-06 
1137 1 4.15554 3.92579e-13 -11.7432 -3.54093 1.31221e-06 
1086 1 -2.48627e-14 4.08562e-13 -13.211 -3.54196 6.46414 
1089 1 -2.48618e-14 -2.54247 -13.211 -3.54196 6.46414 
1139 1 6.23147 -1.27123 -11.0092 -3.54139 4.66133e-09 
1140 1 6.23147 1.27123 -11.0092 -3.54139 4.66133e-09 
1143 1 8.30744 -1.27123 -12.4771 -3.54136 3.14549e-11 
1150 1 8.30744 1.27123 -12.4771 -3.54136 3.14549e-11 
1205 1 8.30744 3.92579e-13 -10.2753 -3.54136 3.14549e-11 
1208 1 8.30744 -2.54247 -10.2753 -3.54136 3.14549e-11 
1209 1 10.3834 -2.54247 -11.7432 -3.54136 3.93724e-12 
1211 1 10.3834 -1.27123 -9.54131 -3.54136 3.93724e-12 
1225 1 10.3834 1.27123 -9.54131 -3.54136 3.93724e-12 
1227 1 10.3834 3.92579e-13 -11.7432 -3.54136 3.93724e-12 
1229 1 12.4594 -1.27123 -11.0092 -3.54136 1.98673e-11 
1230 1 12.4594 1.27123 -11.0092 -3.54136 1.98673e-11 
1233 1 14.5353 -1.27123 -12.4771 -3.54136 4.53389e-12 
1240 1 14.5353 1.27123 -12.4771 -3.54136 4.53389e-12 
1331 1 14.5353 3.92579e-13 -10.2753 -3.54136 4.53389e-12 
1334 1 14.5353 -2.54247 -10.2753 -3.54136 4.53389e-12 
1335 1 16.6113 -2.54247 -11.7432 -3.54136 4.53387e-12 
1337 1 16.6113 -1.27123 -9.54131 -3.54136 4.53388e-12 
1351 1 16.6113 1.27123 -9.54131 -3.54136 4.53388e-12 
1353 1 16.6113 3.92579e-13 -11.7432 -3.54136 4.53387e-12 
1355 1 18.6873 -1.27123 -11.0092 -3.54136 1.98673e-11 
1356 1 18.6873 1.27123 -11.0092 -3.54136 1.98673e-11 
1359 1 20.7632 -1.27123 -12.4771 -3.54136 3.93724e-12 
1366 1 20.7632 1.27123 -12.4771 -3.54136 3.93724e-12 
1493 1 20.7632 3.92579e-13 -10.2753 -3.54136 3.93724e-12 
1496 1 20.7632 -2.54247 -10.2753 -3.54136 3.93724e-12 
1497 1 22.8392 -2.54247 -11.7432 -3.54136 3.14549e-11 
1499 1 22.8392 -1.27123 -9.54131 -3.54136 3.14549e-11 
1513 1 22.8392 1.27123 -9.54131 -3.54136 3.14549e-11 
1515 1 22.8392 3.92579e-13 -11.7432 -3.54136 3.14549e-11 
1517 1 24.9152 -1.27123 -11.0092 -3.54139 4.66133e-09 
1518 1 24.9152 1.27123 -11.0092 -3.54139 4.66133e-09 
1521 1 26.9911 -1.27123 -12.4771 -3.54093 1.31221e-06 
1528 1 26.9911 1.27123 -12.4771 -3.54093 1.31221e-06 
1691 1 26.9911 3.92579e-13 -10.2753 -3.54093 1.31221e-06 
1694 1 26.9911 -2.54247 -10.2753 -3.54093 1.31221e-06 
1695 1 29.0664 -2.54247 -11.7432 -3.53747 7.5294e-05 
1697 1 29.0664 -1.27123 -9.54131 -3.53747 7.5294e-05 
1706 1 29.0664 1.27123 -9.54131 -3.53747 7.5294e-05 
1708 1 29.0664 4.08564e-13 -11.7432 -3.53747 7.5294e-05 
422 1 -31.1466 2.54247 -8.80737 -3.54196 6.46414 
604 1 -29.0664 2.54247 -11.7432 -3.53747 7.5294e-05 
617 1 -26.9911 2.54247 -10.2753 -3.54093 1.31221e-06 
421 1 -31.1466 6.35617 -11.0092 -3.54196 6.46414 
423 1 -31.1466 3.8137 -11.0092 -3.54196 6.46414 
425 1 -31.1466 5.08494 -8.80737 -3.54196 6.46414 
427 1 -29.0664 6.35617 -9.54131 -3.53747 7.5294e-05 
428 1 -29.0664 3.8137 -9.54131 -3.53747 7.5294e-05 
605 1 -29.0664 5.08494 -11.7432 -3.53747 7.5294e-05 
606 1 -26.9911 5.08494 -10.2753 -3.54093 1.31221e-06 
607 1 -26.9911 6.35617 -12.4771 -3.54093 1.31221e-06 
608 1 -26.9911 3.8137 -12.4771 -3.54093 1.31221e-06 
772 1 -22.8392 2.54247 -11.7432 -3.54136 3.14549e-11 
609 1 -24.9152 6.35617 -11.0092 -3.54139 4.66133e-09 
619 1 -24.9152 3.8137 -11.0092 -3.54139 4.66133e-09 
623 1 -22.8392 6.35617 -9.54131 -3.54136 3.14549e-11 
624 1 -22.8392 3.8137 -9.54131 -3.54136 3.14549e-11 
773 1 -22.8392 5.08494 -11.7432 -3.54136 3.14549e-11 
785 1 -20.7632 2.54247 -10.2753 -3.54136 3.93724e-12 
774 1 -20.7632 5.08494 -10.2753 -3.54136 3.93724e-12 
775 1 -20.7632 6.35617 -12.4771 -3.54136 3.93724e-12 
776 1 -20.7632 3.8137 -12.4771 -3.54136 3.93724e-12 
777 1 -18.6873 6.35617 -11.0092 -3.54136 1.98673e-11 
787 1 -18.6873 3.8137 -11.0092 -3.54136 1.98673e-11 
904 1 -16.6113 2.54247 -11.7432 -3.54136 4.53387e-12 
917 1 -14.5353 2.54247 -10.2753 -3.54136 4.53388e-12 
791 1 -16.6113 6.35617 -9.54131 -3.54136 4.53387e-12 
792 1 -16.6113 3.8137 -9.54131 -3.54136 4.53387e-12 
905 1 -16.6113 5.08494 -11.7432 -3.54136 4.53387e-12 
906 1 -14.5353 5.08494 -10.2753 -3.54136 4.53388e-12 
907 1 -14.5353 6.35617 -12.4771 -3.54136 4.53388e-12 
908 1 -14.5353 3.8137 -12.4771 -3.54136 4.53388e-12 
1000 1 -10.3834 2.54247 -11.7432 -3.54136 3.93724e-12 
909 1 -12.4594 6.35617 -11.0092 -3.54136 1.98673e-11 
919 1 -12.4594 3.8137 -11.0092 -3.54136 1.98673e-11 
923 1 -10.3834 6.35617 -9.54131 -3.54136 3.93724e-12 
924 1 -10.3834 3.8137 -9.54131 -3.54136 3.93724e-12 
1001 1 -10.3834 5.08494 -11.7432 -3.54136 3.93724e-12 
1013 1 -8.30744 2.54247 -10.2753 -3.54136 3.14549e-11 
1002 1 -8.30744 5.08494 -10.2753 -3.54136 3.14549e-11 
1003 1 -8.30744 6.35617 -12.4771 -3.54136 3.14549e-11 
1004 1 -8.30744 3.8137 -12.4771 -3.54136 3.14549e-11 
1005 1 -6.23147 6.35617 -11.0092 -3.54139 4.66133e-09 
1015 1 -6.23147 3.8137 -11.0092 -3.54139 4.66133e-09 
1060 1 -4.15554 2.54247 -11.7432 -3.54093 1.31221e-06 
1072 1 -2.08028 2.54247 -10.2753 -3.53747 7.5294e-05 
1019 1 -4.15554 6.35617 -9.54131 -3.54093 1.31221e-06 
1020 1 -4.15554 3.8137 -9.54131 -3.54093 1.31221e-06 
1061 1 -4.15554 5.08494 -11.7432 -3.54093 1.31221e-06 
1062 1 -2.08028 5.08494 -10.2753 -3.53747 7.5294e-05 
1063 1 -2.08028 6.35617 -12.4771 -3.53747 7.5294e-05 
1064 1 -2.08028 3.8137 -12.4771 -3.53747 7.5294e-05 
1133 1 2.08028 2.54247 -10.2753 -3.53747 7.5294e-05 
1134 1 4.15554 2.54247 -11.7432 -3.54093 1.31221e-06 
1093 1 -2.48628e-14 3.8137 -11.0092 -3.54196 6.46414 
1094 1 -2.4864e-14 6.35617 -11.0092 -3.54196 6.46414 
1097 1 2.08028 3.8137 -12.4771 -3.53747 7.5294e-05 
1098 1 2.08028 6.35617 -12.4771 -3.53747 7.5294e-05 
1130 1 2.08028 5.08494 -10.2753 -3.53747 7.5294e-05 
1136 1 4.15554 3.8137 -9.54131 -3.54093 1.31221e-06 
1144 1 4.15554 6.35617 -9.54131 -3.54093 1.31221e-06 
1145 1 4.15554 5.08494 -11.7432 -3.54093 1.31221e-06 
1095 1 -2.48624e-14 2.54247 -13.211 -3.54196 6.46414 
1092 1 -2.48616e-14 5.08494 -13.211 -3.54196 6.46414 
1223 1 8.30744 2.54247 -10.2753 -3.54136 3.14549e-11 
1147 1 6.23147 3.8137 -11.0092 -3.54139 4.66133e-09 
1148 1 6.23147 6.35617 -11.0092 -3.54139 4.66133e-09 
1151 1 8.30744 3.8137 -12.4771 -3.54136 3.14549e-11 
1152 1 8.30744 6.35617 -12.4771 -3.54136 3.14549e-11 
1220 1 8.30744 5.08494 -10.2753 -3.54136 3.14549e-11 
1224 1 10.3834 2.54247 -11.7432 -3.54136 3.93724e-12 
1226 1 10.3834 3.8137 -9.54131 -3.54136 3.93724e-12 
1234 1 10.3834 6.35617 -9.54131 -3.54136 3.93724e-12 
1235 1 10.3834 5.08494 -11.7432 -3.54136 3.93724e-12 
1237 1 12.4594 3.8137 -11.0092 -3.54136 1.98673e-11 
1238 1 12.4594 6.35617 -11.0092 -3.54136 1.98673e-11 
1349 1 14.5353 2.54247 -10.2753 -3.54136 4.53389e-12 
1350 1 16.6113 2.54247 -11.7432 -3.54136 4.53387e-12 
1241 1 14.5353 3.8137 -12.4771 -3.54136 4.53389e-12 
1242 1 14.5353 6.35617 -12.4771 -3.54136 4.53389e-12 
1346 1 14.5353 5.08494 -10.2753 -3.54136 4.53389e-12 
1352 1 16.6113 3.8137 -9.54131 -3.54136 4.53388e-12 
1360 1 16.6113 6.35617 -9.54131 -3.54136 4.53388e-12 
1361 1 16.6113 5.08494 -11.7432 -3.54136 4.53387e-12 
1511 1 20.7632 2.54247 -10.2753 -3.54136 3.93724e-12 
1363 1 18.6873 3.8137 -11.0092 -3.54136 1.98673e-11 
1364 1 18.6873 6.35617 -11.0092 -3.54136 1.98673e-11 
1367 1 20.7632 3.8137 -12.4771 -3.54136 3.93724e-12 
1368 1 20.7632 6.35617 -12.4771 -3.54136 3.93724e-12 
1508 1 20.7632 5.08494 -10.2753 -3.54136 3.93724e-12 
1512 1 22.8392 2.54247 -11.7432 -3.54136 3.14549e-11 
1514 1 22.8392 3.8137 -9.54131 -3.54136 3.14549e-11 
1522 1 22.8392 6.35617 -9.54131 -3.54136 3.14549e-11 
1523 1 22.8392 5.08494 -11.7432 -3.54136 3.14549e-11 
1525 1 24.9152 3.8137 -11.0092 -3.54139 4.66133e-09 
1526 1 24.9152 6.35617 -11.0092 -3.54139 4.66133e-09 
1704 1 26.9911 2.54247 -10.2753 -3.54093 1.31221e-06 
1705 1 29.0664 2.54247 -11.7432 -3.53747 7.5294e-05 
1529 1 26.9911 3.8137 -12.4771 -3.54093 1.31221e-06 
1530 1 26.9911 6.35617 -12.4771 -3.54093 1.31221e-06 
1701 1 26.9911 5.08494 -10.2753 -3.54093 1.31221e-06 
1707 1 29.0664 3.8137 -9.54131 -3.53747 7.5294e-05 
1709 1 29.0664 6.35617 -9.54131 -3.53747 7.5294e-05 
1710 1 29.0664 5.08494 -11.7432 -3.53747 7.5294e-05 
281 1 -31.1466 -5.08494 -4.40368 -3.54196 6.46414 
282 1 -31.1466 -3.8137 -6.60552 -3.54196 6.46414 
283 1 -31.1466 -6.35617 -6.60552 -3.54196 6.46414 
287 1 -29.0664 -3.8137 -5.13763 -3.53747 7.5294e-05 
301 1 -31.1466 -7.6274 -4.40368 -3.54196 6.46414 
303 1 -29.0664 -6.35617 -5.13763 -3.53747 7.5294e-05 
449 1 -29.0664 -5.08494 -7.33947 -3.53747 7.5294e-05 
455 1 -26.9911 -3.8137 -8.07342 -3.54093 1.31221e-06 
469 1 -29.0664 -7.6274 -7.33947 -3.53747 7.5294e-05 
470 1 -26.9911 -7.6274 -5.87158 -3.54093 1.31221e-06 
471 1 -26.9911 -6.35617 -8.07342 -3.54093 1.31221e-06 
472 1 -26.9911 -5.08494 -5.87158 -3.54093 1.31221e-06 
650 1 -24.9152 -7.6274 -8.80737 -3.54139 4.66133e-09 
652 1 -24.9152 -5.08494 -8.80737 -3.54139 4.66133e-09 
474 1 -24.9152 -3.8137 -6.60552 -3.54139 4.66133e-09 
475 1 -24.9152 -6.35617 -6.60552 -3.54139 4.66133e-09 
479 1 -22.8392 -3.8137 -5.13763 -3.54136 3.14549e-11 
495 1 -22.8392 -6.35617 -5.13763 -3.54136 3.14549e-11 
653 1 -22.8392 -5.08494 -7.33947 -3.54136 3.14549e-11 
673 1 -22.8392 -7.6274 -7.33947 -3.54136 3.14549e-11 
818 1 -18.6873 -7.6274 -8.80737 -3.54136 1.98673e-11 
820 1 -18.6873 -5.08494 -8.80737 -3.54136 1.98673e-11 
659 1 -20.7632 -3.8137 -8.07342 -3.54136 3.93724e-12 
674 1 -20.7632 -7.6274 -5.87158 -3.54136 3.93724e-12 
675 1 -20.7632 -6.35617 -8.07342 -3.54136 3.93724e-12 
676 1 -20.7632 -5.08494 -5.87158 -3.54136 3.93724e-12 
678 1 -18.6873 -3.8137 -6.60552 -3.54136 1.98673e-11 
679 1 -18.6873 -6.35617 -6.60552 -3.54136 1.98673e-11 
683 1 -16.6113 -3.8137 -5.13763 -3.54136 4.53387e-12 
699 1 -16.6113 -6.35617 -5.13763 -3.54136 4.53387e-12 
821 1 -16.6113 -5.08494 -7.33947 -3.54136 4.53387e-12 
827 1 -14.5353 -3.8137 -8.07342 -3.54136 4.53388e-12 
841 1 -16.6113 -7.6274 -7.33947 -3.54136 4.53387e-12 
842 1 -14.5353 -7.6274 -5.87158 -3.54136 4.53388e-12 
843 1 -14.5353 -6.35617 -8.07342 -3.54136 4.53388e-12 
844 1 -14.5353 -5.08494 -5.87158 -3.54136 4.53388e-12 
950 1 -12.4594 -7.6274 -8.80737 -3.54136 1.98673e-11 
952 1 -12.4594 -5.08494 -8.80737 -3.54136 1.98673e-11 
846 1 -12.4594 -3.8137 -6.60552 -3.54136 1.98673e-11 
847 1 -12.4594 -6.35617 -6.60552 -3.54136 1.98673e-11 
851 1 -10.3834 -3.8137 -5.13763 -3.54136 3.93724e-12 
867 1 -10.3834 -6.35617 -5.13763 -3.54136 3.93724e-12 
953 1 -10.3834 -5.08494 -7.33947 -3.54136 3.93724e-12 
972 1 -10.3834 -7.6274 -7.33947 -3.54136 3.93724e-12 
1042 1 -6.23147 -7.6274 -8.80737 -3.54139 4.66133e-09 
1044 1 -6.23147 -5.08494 -8.80737 -3.54139 4.66133e-09 
959 1 -8.30744 -3.8137 -8.07342 -3.54136 3.14549e-11 
973 1 -8.30744 -7.6274 -5.87158 -3.54136 3.14549e-11 
974 1 -8.30744 -6.35617 -8.07342 -3.54136 3.14549e-11 
975 1 -8.30744 -5.08494 -5.87158 -3.54136 3.14549e-11 
977 1 -6.23147 -3.8137 -6.60552 -3.54139 4.66133e-09 
978 1 -6.23147 -6.35617 -6.60552 -3.54139 4.66133e-09 
982 1 -4.15554 -3.8137 -5.13763 -3.54093 1.31221e-06 
990 1 -4.15554 -6.35617 -5.13763 -3.54093 1.31221e-06 
1045 1 -4.15554 -5.08494 -7.33947 -3.54093 1.31221e-06 
1051 1 -2.08028 -3.8137 -8.07342 -3.53747 7.5294e-05 
1053 1 -4.15554 -7.6274 -7.33947 -3.54093 1.31221e-06 
1054 1 -2.08028 -7.6274 -5.87158 -3.53747 7.5294e-05 
1055 1 -2.08028 -6.35617 -8.07342 -3.53747 7.5294e-05 
1056 1 -2.08028 -5.08494 -5.87158 -3.53747 7.5294e-05 
1099 1 -2.4868e-14 -7.6274 -8.80737 -3.54196 6.46414 
1104 1 -2.48667e-14 -5.08494 -8.80737 -3.54196 6.46414 
1100 1 -2.48683e-14 -6.35617 -6.60552 -3.54196 6.46414 
1102 1 -2.48684e-14 -3.8137 -6.60552 -3.54196 6.46414 
1106 1 2.08028 -6.35617 -8.07342 -3.53747 7.5294e-05 
1107 1 2.08028 -3.8137 -8.07342 -3.53747 7.5294e-05 
1157 1 2.08028 -7.6274 -5.87158 -3.53747 7.5294e-05 
1166 1 2.08028 -5.08494 -5.87158 -3.53747 7.5294e-05 
1167 1 4.15554 -5.08494 -7.33947 -3.54093 1.31221e-06 
1168 1 4.15554 -6.35617 -5.13763 -3.54093 1.31221e-06 
1169 1 4.15554 -3.8137 -5.13763 -3.54093 1.31221e-06 
1170 1 4.15554 -7.6274 -7.33947 -3.54093 1.31221e-06 
1171 1 6.23147 -7.6274 -8.80737 -3.54139 4.66133e-09 
1188 1 6.23147 -5.08494 -8.80737 -3.54139 4.66133e-09 
1172 1 6.23147 -6.35617 -6.60552 -3.54139 4.66133e-09 
1186 1 6.23147 -3.8137 -6.60552 -3.54139 4.66133e-09 
1190 1 8.30744 -6.35617 -8.07342 -3.54136 3.14549e-11 
1191 1 8.30744 -3.8137 -8.07342 -3.54136 3.14549e-11 
1271 1 8.30744 -7.6274 -5.87158 -3.54136 3.14549e-11 
1290 1 8.30744 -5.08494 -5.87158 -3.54136 3.14549e-11 
1295 1 12.4594 -7.6274 -8.80737 -3.54136 1.98673e-11 
1314 1 12.4594 -5.08494 -8.80737 -3.54136 1.98673e-11 
1291 1 10.3834 -5.08494 -7.33947 -3.54136 3.93724e-12 
1292 1 10.3834 -6.35617 -5.13763 -3.54136 3.93724e-12 
1293 1 10.3834 -3.8137 -5.13763 -3.54136 3.93724e-12 
1294 1 10.3834 -7.6274 -7.33947 -3.54136 3.93724e-12 
1296 1 12.4594 -6.35617 -6.60552 -3.54136 1.98673e-11 
1312 1 12.4594 -3.8137 -6.60552 -3.54136 1.98673e-11 
1316 1 14.5353 -6.35617 -8.07342 -3.54136 4.53389e-12 
1317 1 14.5353 -3.8137 -8.07342 -3.54136 4.53389e-12 
1433 1 14.5353 -7.6274 -5.87158 -3.54136 4.53389e-12 
1452 1 14.5353 -5.08494 -5.87158 -3.54136 4.53389e-12 
1453 1 16.6113 -5.08494 -7.33947 -3.54136 4.53388e-12 
1454 1 16.6113 -6.35617 -5.13763 -3.54136 4.53387e-12 
1455 1 16.6113 -3.8137 -5.13763 -3.54136 4.53387e-12 
1456 1 16.6113 -7.6274 -7.33947 -3.54136 4.53388e-12 
1457 1 18.6873 -7.6274 -8.80737 -3.54136 1.98673e-11 
1476 1 18.6873 -5.08494 -8.80737 -3.54136 1.98673e-11 
1458 1 18.6873 -6.35617 -6.60552 -3.54136 1.98673e-11 
1474 1 18.6873 -3.8137 -6.60552 -3.54136 1.98673e-11 
1478 1 20.7632 -6.35617 -8.07342 -3.54136 3.93724e-12 
1479 1 20.7632 -3.8137 -8.07342 -3.54136 3.93724e-12 
1631 1 20.7632 -7.6274 -5.87158 -3.54136 3.93724e-12 
1650 1 20.7632 -5.08494 -5.87158 -3.54136 3.93724e-12 
1655 1 24.9152 -7.6274 -8.80737 -3.54139 4.66133e-09 
1674 1 24.9152 -5.08494 -8.80737 -3.54139 4.66133e-09 
1651 1 22.8392 -5.08494 -7.33947 -3.54136 3.14549e-11 
1652 1 22.8392 -6.35617 -5.13763 -3.54136 3.14549e-11 
1653 1 22.8392 -3.8137 -5.13763 -3.54136 3.14549e-11 
1654 1 22.8392 -7.6274 -7.33947 -3.54136 3.14549e-11 
1656 1 24.9152 -6.35617 -6.60552 -3.54139 4.66133e-09 
1672 1 24.9152 -3.8137 -6.60552 -3.54139 4.66133e-09 
1676 1 26.9911 -6.35617 -8.07342 -3.54093 1.31221e-06 
1677 1 26.9911 -3.8137 -8.07342 -3.54093 1.31221e-06 
1829 1 26.9911 -7.6274 -5.87158 -3.54093 1.31221e-06 
1848 1 26.9911 -5.08494 -5.87158 -3.54093 1.31221e-06 
1849 1 29.0664 -5.08494 -7.33947 -3.53747 7.5294e-05 
1850 1 29.0664 -6.35617 -5.13763 -3.53747 7.5294e-05 
1851 1 29.0664 -3.8137 -5.13763 -3.53747 7.5294e-05 
1852 1 29.0664 -7.6274 -7.33947 -3.53747 7.5294e-05 
269 1 -31.1466 4.01458e-13 -4.40368 -3.54196 6.46414 
270 1 -31.1466 1.27123 -6.60552 -3.54196 6.46414 
271 1 -31.1466 -1.27123 -6.60552 -3.54196 6.46414 
275 1 -29.0664 1.27123 -5.13763 -3.53747 7.5294e-05 
284 1 -31.1466 -2.54247 -4.40368 -3.54196 6.46414 
286 1 -29.0664 -1.27123 -5.13763 -3.53747 7.5294e-05 
434 1 -29.0664 4.0146e-13 -7.33947 -3.53747 7.5294e-05 
440 1 -26.9911 1.27123 -8.07342 -3.54093 1.31221e-06 
452 1 -29.0664 -2.54247 -7.33947 -3.53747 7.5294e-05 
453 1 -26.9911 -2.54247 -5.87158 -3.54093 1.31221e-06 
454 1 -26.9911 -1.27123 -8.07342 -3.54093 1.31221e-06 
456 1 -26.9911 3.92577e-13 -5.87158 -3.54093 1.31221e-06 
633 1 -24.9152 -2.54247 -8.80737 -3.54139 4.66133e-09 
636 1 -24.9152 4.01457e-13 -8.80737 -3.54139 4.66133e-09 
458 1 -24.9152 1.27123 -6.60552 -3.54139 4.66133e-09 
459 1 -24.9152 -1.27123 -6.60552 -3.54139 4.66133e-09 
463 1 -22.8392 1.27123 -5.13763 -3.54136 3.14549e-11 
478 1 -22.8392 -1.27123 -5.13763 -3.54136 3.14549e-11 
637 1 -22.8392 3.92579e-13 -7.33947 -3.54136 3.14549e-11 
656 1 -22.8392 -2.54247 -7.33947 -3.54136 3.14549e-11 
801 1 -18.6873 -2.54247 -8.80737 -3.54136 1.98673e-11 
804 1 -18.6873 3.92579e-13 -8.80737 -3.54136 1.98673e-11 
643 1 -20.7632 1.27123 -8.07342 -3.54136 3.93724e-12 
657 1 -20.7632 -2.54247 -5.87158 -3.54136 3.93724e-12 
658 1 -20.7632 -1.27123 -8.07342 -3.54136 3.93724e-12 
660 1 -20.7632 3.9258e-13 -5.87158 -3.54136 3.93724e-12 
662 1 -18.6873 1.27123 -6.60552 -3.54136 1.98673e-11 
663 1 -18.6873 -1.27123 -6.60552 -3.54136 1.98673e-11 
667 1 -16.6113 1.27123 -5.13763 -3.54136 4.53387e-12 
682 1 -16.6113 -1.27123 -5.13763 -3.54136 4.53387e-12 
805 1 -16.6113 3.92579e-13 -7.33947 -3.54136 4.53387e-12 
811 1 -14.5353 1.27123 -8.07342 -3.54136 4.53388e-12 
824 1 -16.6113 -2.54247 -7.33947 -3.54136 4.53387e-12 
825 1 -14.5353 -2.54247 -5.87158 -3.54136 4.53388e-12 
826 1 -14.5353 -1.27123 -8.07342 -3.54136 4.53388e-12 
828 1 -14.5353 3.92579e-13 -5.87158 -3.54136 4.53388e-12 
933 1 -12.4594 -2.54247 -8.80737 -3.54136 1.98673e-11 
936 1 -12.4594 3.92579e-13 -8.80737 -3.54136 1.98673e-11 
830 1 -12.4594 1.27123 -6.60552 -3.54136 1.98673e-11 
831 1 -12.4594 -1.27123 -6.60552 -3.54136 1.98673e-11 
835 1 -10.3834 1.27123 -5.13763 -3.54136 3.93724e-12 
850 1 -10.3834 -1.27123 -5.13763 -3.54136 3.93724e-12 
937 1 -10.3834 3.92579e-13 -7.33947 -3.54136 3.93724e-12 
956 1 -10.3834 -2.54247 -7.33947 -3.54136 3.93724e-12 
1029 1 -6.23147 -2.54247 -8.80737 -3.54139 4.66133e-09 
1032 1 -6.23147 3.92578e-13 -8.80737 -3.54139 4.66133e-09 
943 1 -8.30744 1.27123 -8.07342 -3.54136 3.14549e-11 
957 1 -8.30744 -2.54247 -5.87158 -3.54136 3.14549e-11 
958 1 -8.30744 -1.27123 -8.07342 -3.54136 3.14549e-11 
960 1 -8.30744 3.92579e-13 -5.87158 -3.54136 3.14549e-11 
962 1 -6.23147 1.27123 -6.60552 -3.54139 4.66133e-09 
963 1 -6.23147 -1.27123 -6.60552 -3.54139 4.66133e-09 
967 1 -4.15554 1.27123 -5.13763 -3.54093 1.31221e-06 
981 1 -4.15554 -1.27123 -5.13763 -3.54093 1.31221e-06 
1033 1 -4.15554 3.9258e-13 -7.33947 -3.54093 1.31221e-06 
1039 1 -2.08028 1.27123 -8.07342 -3.53747 7.5294e-05 
1048 1 -4.15554 -2.54247 -7.33947 -3.54093 1.31221e-06 
1049 1 -2.08028 -2.54247 -5.87158 -3.53747 7.5294e-05 
1050 1 -2.08028 -1.27123 -8.07342 -3.53747 7.5294e-05 
1052 1 -2.08028 4.0146e-13 -5.87158 -3.53747 7.5294e-05 
1101 1 -2.48646e-14 -2.54247 -8.80737 -3.54196 6.46414 
1114 1 -2.48644e-14 4.01456e-13 -8.80737 -3.54196 6.46414 
1103 1 -2.48664e-14 -1.27123 -6.60552 -3.54196 6.46414 
1112 1 -2.48691e-14 1.27123 -6.60552 -3.54196 6.46414 
1116 1 2.08028 -1.27123 -8.07342 -3.53747 7.5294e-05 
1117 1 2.08028 1.27123 -8.07342 -3.53747 7.5294e-05 
1163 1 2.08028 -2.54247 -5.87158 -3.53747 7.5294e-05 
1180 1 2.08028 4.08563e-13 -5.87158 -3.53747 7.5294e-05 
1181 1 4.15554 3.92581e-13 -7.33947 -3.54093 1.31221e-06 
1182 1 4.15554 -1.27123 -5.13763 -3.54093 1.31221e-06 
1183 1 4.15554 1.27123 -5.13763 -3.54093 1.31221e-06 
1184 1 4.15554 -2.54247 -7.33947 -3.54093 1.31221e-06 
1185 1 6.23147 -2.54247 -8.80737 -3.54139 4.66133e-09 
1204 1 6.23147 3.92579e-13 -8.80737 -3.54139 4.66133e-09 
1187 1 6.23147 -1.27123 -6.60552 -3.54139 4.66133e-09 
1202 1 6.23147 1.27123 -6.60552 -3.54139 4.66133e-09 
1206 1 8.30744 -1.27123 -8.07342 -3.54136 3.14549e-11 
1207 1 8.30744 1.27123 -8.07342 -3.54136 3.14549e-11 
1287 1 8.30744 -2.54247 -5.87158 -3.54136 3.14549e-11 
1306 1 8.30744 3.92579e-13 -5.87158 -3.54136 3.14549e-11 
1311 1 12.4594 -2.54247 -8.80737 -3.54136 1.98673e-11 
1330 1 12.4594 3.92579e-13 -8.80737 -3.54136 1.98673e-11 
1307 1 10.3834 3.92579e-13 -7.33947 -3.54136 3.93724e-12 
1308 1 10.3834 -1.27123 -5.13763 -3.54136 3.93724e-12 
1309 1 10.3834 1.27123 -5.13763 -3.54136 3.93724e-12 
1310 1 10.3834 -2.54247 -7.33947 -3.54136 3.93724e-12 
1313 1 12.4594 -1.27123 -6.60552 -3.54136 1.98673e-11 
1328 1 12.4594 1.27123 -6.60552 -3.54136 1.98673e-11 
1332 1 14.5353 -1.27123 -8.07342 -3.54136 4.53389e-12 
1333 1 14.5353 1.27123 -8.07342 -3.54136 4.53389e-12 
1449 1 14.5353 -2.54247 -5.87158 -3.54136 4.53389e-12 
1468 1 14.5353 3.92579e-13 -5.87158 -3.54136 4.53389e-12 
1469 1 16.6113 3.92579e-13 -7.33947 -3.54136 4.53388e-12 
1470 1 16.6113 -1.27123 -5.13763 -3.54136 4.53387e-12 
1471 1 16.6113 1.27123 -5.13763 -3.54136 4.53387e-12 
1472 1 16.6113 -2.54247 -7.33947 -3.54136 4.53388e-12 
1473 1 18.6873 -2.54247 -8.80737 -3.54136 1.98673e-11 
1492 1 18.6873 3.92579e-13 -8.80737 -3.54136 1.98673e-11 
1475 1 18.6873 -1.27123 -6.60552 -3.54136 1.98673e-11 
1490 1 18.6873 1.27123 -6.60552 -3.54136 1.98673e-11 
1494 1 20.7632 -1.27123 -8.07342 -3.54136 3.93724e-12 
1495 1 20.7632 1.27123 -8.07342 -3.54136 3.93724e-12 
1647 1 20.7632 -2.54247 -5.87158 -3.54136 3.93724e-12 
1666 1 20.7632 3.92579e-13 -5.87158 -3.54136 3.93724e-12 
1671 1 24.9152 -2.54247 -8.80737 -3.54139 4.66133e-09 
1690 1 24.9152 3.92577e-13 -8.80737 -3.54139 4.66133e-09 
1667 1 22.8392 3.9258e-13 -7.33947 -3.54136 3.14549e-11 
1668 1 22.8392 -1.27123 -5.13763 -3.54136 3.14549e-11 
1669 1 22.8392 1.27123 -5.13763 -3.54136 3.14549e-11 
1670 1 22.8392 -2.54247 -7.33947 -3.54136 3.14549e-11 
1673 1 24.9152 -1.27123 -6.60552 -3.54139 4.66133e-09 
1688 1 24.9152 1.27123 -6.60552 -3.54139 4.66133e-09 
1692 1 26.9911 -1.27123 -8.07342 -3.54093 1.31221e-06 