ITEM: TIMESTEP
79
ITEM: NUMBER OF ATOMS
2160
ITEM: BOX BOUNDS pp pp pp
-3.1146573695941601e+01 3.1146573695941601e+01
-7.6274036785438888e+00 7.6274036785438888e+00
-1.3211054038642137e+01 1.3211054038642137e+01
ITEM: ATOMS id type x y z c_eng c_csym 
432 1 -31.1466 -3.8137 -11.0092 -3.54187 6.46414 
446 1 -31.1466 -7.6274 -8.80737 -3.54187 6.46414 
447 1 -31.1466 -6.35617 -11.0092 -3.54187 6.46414 
448 1 -31.1466 -5.08494 -8.80737 -3.54187 6.46414 
450 1 -29.0669 -3.8137 -9.54132 -3.53748 5.2e-05 
451 1 -29.0669 -6.35617 -9.54132 -3.53748 5.2e-05 
627 1 -29.0669 -7.6274 -11.7432 -3.53748 5.2e-05 
628 1 -29.0669 -5.08494 -11.7432 -3.53748 5.2e-05 
629 1 -26.9914 -5.08494 -10.2753 -3.54098 7.52562e-07 
630 1 -26.9914 -3.8137 -12.4771 -3.54098 7.52562e-07 
631 1 -26.9914 -6.35617 -12.4771 -3.54098 7.52562e-07 
649 1 -26.9914 -7.6274 -10.2753 -3.54098 7.52562e-07 
635 1 -24.9153 -3.8137 -11.0092 -3.54139 1.82121e-08 
651 1 -24.9153 -6.35617 -11.0092 -3.54139 1.82121e-08 
654 1 -22.8392 -3.8137 -9.54132 -3.54137 1.06523e-08 
655 1 -22.8392 -6.35617 -9.54132 -3.54137 1.06523e-08 
795 1 -22.8392 -7.6274 -11.7432 -3.54137 1.06523e-08 
796 1 -22.8392 -5.08494 -11.7432 -3.54137 1.06523e-08 
797 1 -20.7632 -5.08494 -10.2753 -3.54136 1.98848e-08 
798 1 -20.7632 -3.8137 -12.4771 -3.54136 1.98848e-08 
799 1 -20.7632 -6.35617 -12.4771 -3.54136 1.98848e-08 
803 1 -18.6872 -3.8137 -11.0092 -3.54135 2.82241e-12 
817 1 -20.7632 -7.6274 -10.2753 -3.54136 1.98848e-08 
819 1 -18.6872 -6.35617 -11.0092 -3.54135 2.82241e-12 
822 1 -16.6113 -3.8137 -9.54132 -3.54136 1.15768e-11 
823 1 -16.6113 -6.35617 -9.54132 -3.54136 1.15768e-11 
927 1 -16.6113 -7.6274 -11.7432 -3.54136 1.15768e-11 
928 1 -16.6113 -5.08494 -11.7432 -3.54136 1.15768e-11 
929 1 -14.5353 -5.08494 -10.2753 -3.54136 1.15768e-11 
930 1 -14.5353 -3.8137 -12.4771 -3.54136 1.15768e-11 
931 1 -14.5353 -6.35617 -12.4771 -3.54136 1.15768e-11 
949 1 -14.5353 -7.6274 -10.2753 -3.54136 1.15768e-11 
935 1 -12.4593 -3.8137 -11.0092 -3.54135 2.8224e-12 
951 1 -12.4593 -6.35617 -11.0092 -3.54135 2.8224e-12 
954 1 -10.3834 -3.8137 -9.54132 -3.54136 1.98848e-08 
955 1 -10.3834 -6.35617 -9.54132 -3.54136 1.98848e-08 
1023 1 -10.3834 -7.6274 -11.7432 -3.54136 1.98848e-08 
1024 1 -10.3834 -5.08494 -11.7432 -3.54136 1.98848e-08 
1025 1 -8.30734 -5.08494 -10.2753 -3.54137 1.06523e-08 
1026 1 -8.30734 -3.8137 -12.4771 -3.54137 1.06523e-08 
1027 1 -8.30734 -6.35617 -12.4771 -3.54137 1.06523e-08 
1031 1 -6.23124 -3.8137 -11.0092 -3.54139 1.82121e-08 
1041 1 -8.30734 -7.6274 -10.2753 -3.54137 1.06523e-08 
1043 1 -6.23124 -6.35617 -11.0092 -3.54139 1.82121e-08 
1046 1 -4.15521 -3.8137 -9.54132 -3.54098 7.52562e-07 
1047 1 -4.15521 -6.35617 -9.54132 -3.54098 7.52562e-07 
1074 1 -4.15521 -7.6274 -11.7432 -3.54098 7.52562e-07 
1075 1 -4.15521 -5.08494 -11.7432 -3.54098 7.52562e-07 
1076 1 -2.07969 -5.08494 -10.2753 -3.53748 5.2e-05 
1077 1 -2.07969 -3.8137 -12.4771 -3.53748 5.2e-05 
1078 1 -2.07969 -6.35617 -12.4771 -3.53748 5.2e-05 
1080 1 -2.07969 -7.6274 -10.2753 -3.53748 5.2e-05 
1082 1 -3.52314e-15 -6.35617 -11.0092 -3.54187 6.46414 
1083 1 -7.07459e-15 -3.8137 -11.0092 -3.54187 6.46414 
1085 1 2.07969 -6.35617 -12.4771 -3.53748 5.2e-05 
1090 1 2.07969 -3.8137 -12.4771 -3.53748 5.2e-05 
1105 1 2.07969 -5.08494 -10.2753 -3.53748 5.2e-05 
1108 1 2.07969 -7.6274 -10.2753 -3.53748 5.2e-05 
1109 1 4.15521 -7.6274 -11.7432 -3.54098 7.52562e-07 
1110 1 4.15521 -6.35617 -9.54132 -3.54098 7.52562e-07 
1120 1 4.15521 -3.8137 -9.54132 -3.54098 7.52562e-07 
1122 1 4.15521 -5.08494 -11.7432 -3.54098 7.52562e-07 
1081 1 2.75194e-17 -5.08494 -13.2111 -3.54187 6.46414 
1084 1 2.72401e-17 -7.6274 -13.2111 -3.54187 6.46414 
1124 1 6.23124 -6.35617 -11.0092 -3.54139 1.82121e-08 
1125 1 6.23124 -3.8137 -11.0092 -3.54139 1.82121e-08 
1127 1 8.30734 -6.35617 -12.4771 -3.54137 1.06523e-08 
1142 1 8.30734 -3.8137 -12.4771 -3.54137 1.06523e-08 
1189 1 8.30734 -5.08494 -10.2753 -3.54137 1.06523e-08 
1192 1 8.30734 -7.6274 -10.2753 -3.54137 1.06523e-08 
1193 1 10.3834 -7.6274 -11.7432 -3.54136 1.98848e-08 
1194 1 10.3834 -6.35617 -9.54132 -3.54136 1.98848e-08 
1210 1 10.3834 -3.8137 -9.54132 -3.54136 1.98848e-08 
1212 1 10.3834 -5.08494 -11.7432 -3.54136 1.98848e-08 
1214 1 12.4593 -6.35617 -11.0092 -3.54135 2.8224e-12 
1215 1 12.4593 -3.8137 -11.0092 -3.54135 2.8224e-12 
1217 1 14.5353 -6.35617 -12.4771 -3.54136 1.15768e-11 
1232 1 14.5353 -3.8137 -12.4771 -3.54136 1.15768e-11 
1315 1 14.5353 -5.08494 -10.2753 -3.54136 1.15768e-11 
1318 1 14.5353 -7.6274 -10.2753 -3.54136 1.15768e-11 
1319 1 16.6113 -7.6274 -11.7432 -3.54136 1.15768e-11 
1320 1 16.6113 -6.35617 -9.54132 -3.54136 1.15768e-11 
1336 1 16.6113 -3.8137 -9.54132 -3.54136 1.15768e-11 
1338 1 16.6113 -5.08494 -11.7432 -3.54136 1.15768e-11 
1340 1 18.6872 -6.35617 -11.0092 -3.54135 2.8224e-12 
1341 1 18.6872 -3.8137 -11.0092 -3.54135 2.8224e-12 
1343 1 20.7632 -6.35617 -12.4771 -3.54136 1.98848e-08 
1358 1 20.7632 -3.8137 -12.4771 -3.54136 1.98848e-08 
1477 1 20.7632 -5.08494 -10.2753 -3.54136 1.98848e-08 
1480 1 20.7632 -7.6274 -10.2753 -3.54136 1.98848e-08 
1481 1 22.8392 -7.6274 -11.7432 -3.54137 1.06523e-08 
1482 1 22.8392 -6.35617 -9.54132 -3.54137 1.06523e-08 
1498 1 22.8392 -3.8137 -9.54132 -3.54137 1.06523e-08 
1500 1 22.8392 -5.08494 -11.7432 -3.54137 1.06523e-08 
1502 1 24.9153 -6.35617 -11.0092 -3.54139 1.82121e-08 
1503 1 24.9153 -3.8137 -11.0092 -3.54139 1.82121e-08 
1505 1 26.9914 -6.35617 -12.4771 -3.54098 7.52562e-07 
1520 1 26.9914 -3.8137 -12.4771 -3.54098 7.52562e-07 
1675 1 26.9914 -5.08494 -10.2753 -3.54098 7.52562e-07 
1678 1 26.9914 -7.6274 -10.2753 -3.54098 7.52562e-07 
1679 1 29.0669 -7.6274 -11.7432 -3.53748 5.2e-05 
1680 1 29.0669 -6.35617 -9.54132 -3.53748 5.2e-05 
1696 1 29.0669 -3.8137 -9.54132 -3.53748 5.2e-05 
1698 1 29.0669 -5.08494 -11.7432 -3.53748 5.2e-05 
424 1 -31.1466 1.27123 -11.0092 -3.54187 6.46414 
430 1 -31.1466 -2.54247 -8.80737 -3.54187 6.46414 
431 1 -31.1466 -1.27123 -11.0092 -3.54187 6.46414 
433 1 -31.1466 4.03236e-13 -8.80737 -3.54187 6.46414 
435 1 -29.0669 1.27123 -9.54132 -3.53748 5.2e-05 
436 1 -29.0669 -1.27123 -9.54132 -3.53748 5.2e-05 
612 1 -29.0669 -2.54247 -11.7432 -3.53748 5.2e-05 
613 1 -29.0669 4.06786e-13 -11.7432 -3.53748 5.2e-05 
614 1 -26.9914 4.0501e-13 -10.2753 -3.54098 7.52562e-07 
615 1 -26.9914 1.27123 -12.4771 -3.54098 7.52562e-07 
616 1 -26.9914 -1.27123 -12.4771 -3.54098 7.52562e-07 
632 1 -26.9914 -2.54247 -10.2753 -3.54098 7.52562e-07 
620 1 -24.9153 1.27123 -11.0092 -3.54139 1.82121e-08 
634 1 -24.9153 -1.27123 -11.0092 -3.54139 1.82121e-08 
638 1 -22.8392 1.27123 -9.54132 -3.54137 1.06523e-08 
639 1 -22.8392 -1.27123 -9.54132 -3.54137 1.06523e-08 
780 1 -22.8392 -2.54247 -11.7432 -3.54137 1.06523e-08 
781 1 -22.8392 4.03237e-13 -11.7432 -3.54137 1.06523e-08 
782 1 -20.7632 4.01457e-13 -10.2753 -3.54136 1.98848e-08 
783 1 -20.7632 1.27123 -12.4771 -3.54136 1.98848e-08 
784 1 -20.7632 -1.27123 -12.4771 -3.54136 1.98848e-08 
788 1 -18.6872 1.27123 -11.0092 -3.54135 2.82241e-12 
800 1 -20.7632 -2.54247 -10.2753 -3.54136 1.98848e-08 
802 1 -18.6872 -1.27123 -11.0092 -3.54135 2.82241e-12 
806 1 -16.6113 1.27123 -9.54132 -3.54136 1.15768e-11 
807 1 -16.6113 -1.27123 -9.54132 -3.54136 1.15768e-11 
912 1 -16.6113 -2.54247 -11.7432 -3.54136 1.15768e-11 
913 1 -16.6113 4.05011e-13 -11.7432 -3.54136 1.15768e-11 
914 1 -14.5353 4.03235e-13 -10.2753 -3.54136 1.15768e-11 
915 1 -14.5353 1.27123 -12.4771 -3.54136 1.15768e-11 
916 1 -14.5353 -1.27123 -12.4771 -3.54136 1.15768e-11 
932 1 -14.5353 -2.54247 -10.2753 -3.54136 1.15768e-11 
920 1 -12.4593 1.27123 -11.0092 -3.54135 2.8224e-12 
934 1 -12.4593 -1.27123 -11.0092 -3.54135 2.8224e-12 
938 1 -10.3834 1.27123 -9.54132 -3.54136 1.98848e-08 
939 1 -10.3834 -1.27123 -9.54132 -3.54136 1.98848e-08 
1008 1 -10.3834 -2.54247 -11.7432 -3.54136 1.98848e-08 
1009 1 -10.3834 4.03235e-13 -11.7432 -3.54136 1.98848e-08 
1010 1 -8.30734 4.03235e-13 -10.2753 -3.54137 1.06523e-08 
1011 1 -8.30734 1.27123 -12.4771 -3.54137 1.06523e-08 
1012 1 -8.30734 -1.27123 -12.4771 -3.54137 1.06523e-08 
1016 1 -6.23124 1.27123 -11.0092 -3.54139 1.82121e-08 
1028 1 -8.30734 -2.54247 -10.2753 -3.54137 1.06523e-08 
1030 1 -6.23124 -1.27123 -11.0092 -3.54139 1.82121e-08 
1034 1 -4.15521 1.27123 -9.54132 -3.54098 7.52562e-07 
1035 1 -4.15521 -1.27123 -9.54132 -3.54098 7.52562e-07 
1067 1 -4.15521 -2.54247 -11.7432 -3.54098 7.52562e-07 
1068 1 -4.15521 4.0679e-13 -11.7432 -3.54098 7.52562e-07 
1069 1 -2.07969 4.05011e-13 -10.2753 -3.53748 5.2e-05 
1070 1 -2.07969 1.27123 -12.4771 -3.53748 5.2e-05 
1071 1 -2.07969 -1.27123 -12.4771 -3.53748 5.2e-05 
1079 1 -2.07969 -2.54247 -10.2753 -3.53748 5.2e-05 
1087 1 -3.52382e-15 -1.27123 -11.0092 -3.54187 6.46414 
1088 1 2.65991e-17 1.27123 -11.0092 -3.54187 6.46414 
1091 1 2.07969 -1.27123 -12.4771 -3.53748 5.2e-05 
1096 1 2.07969 1.27123 -12.4771 -3.53748 5.2e-05 
1115 1 2.07969 4.01461e-13 -10.2753 -3.53748 5.2e-05 
1118 1 2.07969 -2.54247 -10.2753 -3.53748 5.2e-05 
1119 1 4.15521 -2.54247 -11.7432 -3.54098 7.52562e-07 
1121 1 4.15521 -1.27123 -9.54132 -3.54098 7.52562e-07 
1135 1 4.15521 1.27123 -9.54132 -3.54098 7.52562e-07 
1137 1 4.15521 4.06788e-13 -11.7432 -3.54098 7.52562e-07 
1086 1 2.61473e-17 4.03235e-13 -13.2111 -3.54187 6.46414 
1089 1 2.49909e-17 -2.54247 -13.2111 -3.54187 6.46414 
1139 1 6.23124 -1.27123 -11.0092 -3.54139 1.82121e-08 
1140 1 6.23124 1.27123 -11.0092 -3.54139 1.82121e-08 
1143 1 8.30734 -1.27123 -12.4771 -3.54137 1.06523e-08 
1150 1 8.30734 1.27123 -12.4771 -3.54137 1.06523e-08 
1205 1 8.30734 4.03235e-13 -10.2753 -3.54137 1.06523e-08 
1208 1 8.30734 -2.54247 -10.2753 -3.54137 1.06523e-08 
1209 1 10.3834 -2.54247 -11.7432 -3.54136 1.98848e-08 
1211 1 10.3834 -1.27123 -9.54132 -3.54136 1.98848e-08 
1225 1 10.3834 1.27123 -9.54132 -3.54136 1.98848e-08 
1227 1 10.3834 4.0146e-13 -11.7432 -3.54136 1.98848e-08 
1229 1 12.4593 -1.27123 -11.0092 -3.54135 2.8224e-12 
1230 1 12.4593 1.27123 -11.0092 -3.54135 2.8224e-12 
1233 1 14.5353 -1.27123 -12.4771 -3.54136 1.15768e-11 
1240 1 14.5353 1.27123 -12.4771 -3.54136 1.15768e-11 
1331 1 14.5353 4.03235e-13 -10.2753 -3.54136 1.15768e-11 
1334 1 14.5353 -2.54247 -10.2753 -3.54136 1.15768e-11 
1335 1 16.6113 -2.54247 -11.7432 -3.54136 1.15768e-11 
1337 1 16.6113 -1.27123 -9.54132 -3.54136 1.15768e-11 
1351 1 16.6113 1.27123 -9.54132 -3.54136 1.15768e-11 
1353 1 16.6113 4.05012e-13 -11.7432 -3.54136 1.15768e-11 
1355 1 18.6872 -1.27123 -11.0092 -3.54135 2.8224e-12 
1356 1 18.6872 1.27123 -11.0092 -3.54135 2.8224e-12 
1359 1 20.7632 -1.27123 -12.4771 -3.54136 1.98848e-08 
1366 1 20.7632 1.27123 -12.4771 -3.54136 1.98848e-08 
1493 1 20.7632 4.03235e-13 -10.2753 -3.54136 1.98848e-08 
1496 1 20.7632 -2.54247 -10.2753 -3.54136 1.98848e-08 
1497 1 22.8392 -2.54247 -11.7432 -3.54137 1.06523e-08 
1499 1 22.8392 -1.27123 -9.54132 -3.54137 1.06523e-08 
1513 1 22.8392 1.27123 -9.54132 -3.54137 1.06523e-08 
1515 1 22.8392 4.05011e-13 -11.7432 -3.54137 1.06523e-08 
1517 1 24.9153 -1.27123 -11.0092 -3.54139 1.82121e-08 
1518 1 24.9153 1.27123 -11.0092 -3.54139 1.82121e-08 
1521 1 26.9914 -1.27123 -12.4771 -3.54098 7.52562e-07 
1528 1 26.9914 1.27123 -12.4771 -3.54098 7.52562e-07 
1691 1 26.9914 4.06787e-13 -10.2753 -3.54098 7.52562e-07 
1694 1 26.9914 -2.54247 -10.2753 -3.54098 7.52562e-07 
1695 1 29.0669 -2.54247 -11.7432 -3.53748 5.2e-05 
1697 1 29.0669 -1.27123 -9.54132 -3.53748 5.2e-05 
1706 1 29.0669 1.27123 -9.54132 -3.53748 5.2e-05 
1708 1 29.0669 4.05012e-13 -11.7432 -3.53748 5.2e-05 
422 1 -31.1466 2.54247 -8.80737 -3.54187 6.46414 
604 1 -29.0669 2.54247 -11.7432 -3.53748 5.2e-05 
617 1 -26.9914 2.54247 -10.2753 -3.54098 7.52562e-07 
421 1 -31.1466 6.35617 -11.0092 -3.54187 6.46414 
423 1 -31.1466 3.8137 -11.0092 -3.54187 6.46414 
425 1 -31.1466 5.08494 -8.80737 -3.54187 6.46414 
427 1 -29.0669 6.35617 -9.54132 -3.53748 5.2e-05 
428 1 -29.0669 3.8137 -9.54132 -3.53748 5.2e-05 
605 1 -29.0669 5.08494 -11.7432 -3.53748 5.2e-05 
606 1 -26.9914 5.08494 -10.2753 -3.54098 7.52562e-07 
607 1 -26.9914 6.35617 -12.4771 -3.54098 7.52562e-07 
608 1 -26.9914 3.8137 -12.4771 -3.54098 7.52562e-07 
772 1 -22.8392 2.54247 -11.7432 -3.54137 1.06523e-08 
609 1 -24.9153 6.35617 -11.0092 -3.54139 1.82121e-08 
619 1 -24.9153 3.8137 -11.0092 -3.54139 1.82121e-08 
623 1 -22.8392 6.35617 -9.54132 -3.54137 1.06523e-08 
624 1 -22.8392 3.8137 -9.54132 -3.54137 1.06523e-08 
773 1 -22.8392 5.08494 -11.7432 -3.54137 1.06523e-08 
785 1 -20.7632 2.54247 -10.2753 -3.54136 1.98848e-08 
774 1 -20.7632 5.08494 -10.2753 -3.54136 1.98848e-08 
775 1 -20.7632 6.35617 -12.4771 -3.54136 1.98848e-08 
776 1 -20.7632 3.8137 -12.4771 -3.54136 1.98848e-08 
777 1 -18.6872 6.35617 -11.0092 -3.54135 2.82241e-12 
787 1 -18.6872 3.8137 -11.0092 -3.54135 2.82241e-12 
904 1 -16.6113 2.54247 -11.7432 -3.54136 1.15768e-11 
917 1 -14.5353 2.54247 -10.2753 -3.54136 1.15768e-11 
791 1 -16.6113 6.35617 -9.54132 -3.54136 1.15768e-11 
792 1 -16.6113 3.8137 -9.54132 -3.54136 1.15768e-11 
905 1 -16.6113 5.08494 -11.7432 -3.54136 1.15768e-11 
906 1 -14.5353 5.08494 -10.2753 -3.54136 1.15768e-11 
907 1 -14.5353 6.35617 -12.4771 -3.54136 1.15768e-11 
908 1 -14.5353 3.8137 -12.4771 -3.54136 1.15768e-11 
1000 1 -10.3834 2.54247 -11.7432 -3.54136 1.98848e-08 
909 1 -12.4593 6.35617 -11.0092 -3.54135 2.8224e-12 
919 1 -12.4593 3.8137 -11.0092 -3.54135 2.8224e-12 
923 1 -10.3834 6.35617 -9.54132 -3.54136 1.98848e-08 
924 1 -10.3834 3.8137 -9.54132 -3.54136 1.98848e-08 
1001 1 -10.3834 5.08494 -11.7432 -3.54136 1.98848e-08 
1013 1 -8.30734 2.54247 -10.2753 -3.54137 1.06523e-08 
1002 1 -8.30734 5.08494 -10.2753 -3.54137 1.06523e-08 
1003 1 -8.30734 6.35617 -12.4771 -3.54137 1.06523e-08 
1004 1 -8.30734 3.8137 -12.4771 -3.54137 1.06523e-08 
1005 1 -6.23124 6.35617 -11.0092 -3.54139 1.82121e-08 
1015 1 -6.23124 3.8137 -11.0092 -3.54139 1.82121e-08 
1060 1 -4.15521 2.54247 -11.7432 -3.54098 7.52562e-07 
1072 1 -2.07969 2.54247 -10.2753 -3.53748 5.2e-05 
1019 1 -4.15521 6.35617 -9.54132 -3.54098 7.52562e-07 
1020 1 -4.15521 3.8137 -9.54132 -3.54098 7.52562e-07 
1061 1 -4.15521 5.08494 -11.7432 -3.54098 7.52562e-07 
1062 1 -2.07969 5.08494 -10.2753 -3.53748 5.2e-05 
1063 1 -2.07969 6.35617 -12.4771 -3.53748 5.2e-05 
1064 1 -2.07969 3.8137 -12.4771 -3.53748 5.2e-05 
1133 1 2.07969 2.54247 -10.2753 -3.53748 5.2e-05 
1134 1 4.15521 2.54247 -11.7432 -3.54098 7.52562e-07 
1093 1 -7.07704e-15 3.8137 -11.0092 -3.54187 6.46414 
1094 1 2.81753e-17 6.35617 -11.0092 -3.54187 6.46414 
1097 1 2.07969 3.8137 -12.4771 -3.53748 5.2e-05 
1098 1 2.07969 6.35617 -12.4771 -3.53748 5.2e-05 
1130 1 2.07969 5.08494 -10.2753 -3.53748 5.2e-05 
1136 1 4.15521 3.8137 -9.54132 -3.54098 7.52562e-07 
1144 1 4.15521 6.35617 -9.54132 -3.54098 7.52562e-07 
1145 1 4.15521 5.08494 -11.7432 -3.54098 7.52562e-07 
1095 1 -3.52434e-15 2.54247 -13.2111 -3.54187 6.46414 
1092 1 2.69419e-17 5.08494 -13.2111 -3.54187 6.46414 
1223 1 8.30734 2.54247 -10.2753 -3.54137 1.06523e-08 
1147 1 6.23124 3.8137 -11.0092 -3.54139 1.82121e-08 
1148 1 6.23124 6.35617 -11.0092 -3.54139 1.82121e-08 
1151 1 8.30734 3.8137 -12.4771 -3.54137 1.06523e-08 
1152 1 8.30734 6.35617 -12.4771 -3.54137 1.06523e-08 
1220 1 8.30734 5.08494 -10.2753 -3.54137 1.06523e-08 
1224 1 10.3834 2.54247 -11.7432 -3.54136 1.98848e-08 
1226 1 10.3834 3.8137 -9.54132 -3.54136 1.98848e-08 
1234 1 10.3834 6.35617 -9.54132 -3.54136 1.98848e-08 
1235 1 10.3834 5.08494 -11.7432 -3.54136 1.98848e-08 
1237 1 12.4593 3.8137 -11.0092 -3.54135 2.8224e-12 
1238 1 12.4593 6.35617 -11.0092 -3.54135 2.8224e-12 
1349 1 14.5353 2.54247 -10.2753 -3.54136 1.15768e-11 
1350 1 16.6113 2.54247 -11.7432 -3.54136 1.15768e-11 
1241 1 14.5353 3.8137 -12.4771 -3.54136 1.15768e-11 
1242 1 14.5353 6.35617 -12.4771 -3.54136 1.15768e-11 
1346 1 14.5353 5.08494 -10.2753 -3.54136 1.15768e-11 
1352 1 16.6113 3.8137 -9.54132 -3.54136 1.15768e-11 
1360 1 16.6113 6.35617 -9.54132 -3.54136 1.15768e-11 
1361 1 16.6113 5.08494 -11.7432 -3.54136 1.15768e-11 
1511 1 20.7632 2.54247 -10.2753 -3.54136 1.98848e-08 
1363 1 18.6872 3.8137 -11.0092 -3.54135 2.8224e-12 
1364 1 18.6872 6.35617 -11.0092 -3.54135 2.8224e-12 
1367 1 20.7632 3.8137 -12.4771 -3.54136 1.98848e-08 
1368 1 20.7632 6.35617 -12.4771 -3.54136 1.98848e-08 
1508 1 20.7632 5.08494 -10.2753 -3.54136 1.98848e-08 
1512 1 22.8392 2.54247 -11.7432 -3.54137 1.06523e-08 
1514 1 22.8392 3.8137 -9.54132 -3.54137 1.06523e-08 
1522 1 22.8392 6.35617 -9.54132 -3.54137 1.06523e-08 
1523 1 22.8392 5.08494 -11.7432 -3.54137 1.06523e-08 
1525 1 24.9153 3.8137 -11.0092 -3.54139 1.82121e-08 
1526 1 24.9153 6.35617 -11.0092 -3.54139 1.82121e-08 
1704 1 26.9914 2.54247 -10.2753 -3.54098 7.52562e-07 
1705 1 29.0669 2.54247 -11.7432 -3.53748 5.2e-05 
1529 1 26.9914 3.8137 -12.4771 -3.54098 7.52562e-07 
1530 1 26.9914 6.35617 -12.4771 -3.54098 7.52562e-07 
1701 1 26.9914 5.08494 -10.2753 -3.54098 7.52562e-07 
1707 1 29.0669 3.8137 -9.54132 -3.53748 5.2e-05 
1709 1 29.0669 6.35617 -9.54132 -3.53748 5.2e-05 
1710 1 29.0669 5.08494 -11.7432 -3.53748 5.2e-05 
281 1 -31.1466 -5.08494 -4.40368 -3.54187 6.46414 
282 1 -31.1466 -3.8137 -6.60553 -3.54187 6.46414 
283 1 -31.1466 -6.35617 -6.60553 -3.54187 6.46414 
287 1 -29.0669 -3.8137 -5.13763 -3.53748 5.2e-05 
301 1 -31.1466 -7.6274 -4.40368 -3.54187 6.46414 
303 1 -29.0669 -6.35617 -5.13763 -3.53748 5.2e-05 
449 1 -29.0669 -5.08494 -7.33947 -3.53748 5.2e-05 
455 1 -26.9914 -3.8137 -8.07342 -3.54098 7.52562e-07 
469 1 -29.0669 -7.6274 -7.33947 -3.53748 5.2e-05 
470 1 -26.9914 -7.6274 -5.87158 -3.54098 7.52562e-07 
471 1 -26.9914 -6.35617 -8.07342 -3.54098 7.52562e-07 
472 1 -26.9914 -5.08494 -5.87158 -3.54098 7.52562e-07 
650 1 -24.9153 -7.6274 -8.80737 -3.54139 1.82121e-08 
652 1 -24.9153 -5.08494 -8.80737 -3.54139 1.82121e-08 
473 1 -24.9153 -5.08494 -4.40368 -3.54139 1.82121e-08 
474 1 -24.9153 -3.8137 -6.60553 -3.54139 1.82121e-08 
475 1 -24.9153 -6.35617 -6.60553 -3.54139 1.82121e-08 
479 1 -22.8392 -3.8137 -5.13763 -3.54137 1.06523e-08 
493 1 -24.9153 -7.6274 -4.40368 -3.54139 1.82121e-08 
495 1 -22.8392 -6.35617 -5.13763 -3.54137 1.06523e-08 
653 1 -22.8392 -5.08494 -7.33947 -3.54137 1.06523e-08 
673 1 -22.8392 -7.6274 -7.33947 -3.54137 1.06523e-08 
818 1 -18.6872 -7.6274 -8.80737 -3.54135 2.82241e-12 
820 1 -18.6872 -5.08494 -8.80737 -3.54135 2.82241e-12 
659 1 -20.7632 -3.8137 -8.07342 -3.54136 1.98848e-08 
674 1 -20.7632 -7.6274 -5.87158 -3.54136 1.98848e-08 
675 1 -20.7632 -6.35617 -8.07342 -3.54136 1.98848e-08 
676 1 -20.7632 -5.08494 -5.87158 -3.54136 1.98848e-08 
677 1 -18.6872 -5.08494 -4.40368 -3.54135 2.82241e-12 
678 1 -18.6872 -3.8137 -6.60553 -3.54135 2.82241e-12 
679 1 -18.6872 -6.35617 -6.60553 -3.54135 2.82241e-12 
697 1 -18.6872 -7.6274 -4.40368 -3.54135 2.82241e-12 
683 1 -16.6113 -3.8137 -5.13763 -3.54136 1.15768e-11 
699 1 -16.6113 -6.35617 -5.13763 -3.54136 1.15768e-11 
821 1 -16.6113 -5.08494 -7.33947 -3.54136 1.15768e-11 
827 1 -14.5353 -3.8137 -8.07342 -3.54136 1.15768e-11 
841 1 -16.6113 -7.6274 -7.33947 -3.54136 1.15768e-11 
842 1 -14.5353 -7.6274 -5.87158 -3.54136 1.15768e-11 
843 1 -14.5353 -6.35617 -8.07342 -3.54136 1.15768e-11 
844 1 -14.5353 -5.08494 -5.87158 -3.54136 1.15768e-11 
950 1 -12.4593 -7.6274 -8.80737 -3.54135 2.8224e-12 
952 1 -12.4593 -5.08494 -8.80737 -3.54135 2.8224e-12 
845 1 -12.4593 -5.08494 -4.40368 -3.54135 2.8224e-12 
846 1 -12.4593 -3.8137 -6.60553 -3.54135 2.8224e-12 
847 1 -12.4593 -6.35617 -6.60553 -3.54135 2.8224e-12 
851 1 -10.3834 -3.8137 -5.13763 -3.54136 1.98848e-08 
865 1 -12.4593 -7.6274 -4.40368 -3.54135 2.8224e-12 
867 1 -10.3834 -6.35617 -5.13763 -3.54136 1.98848e-08 
953 1 -10.3834 -5.08494 -7.33947 -3.54136 1.98848e-08 
972 1 -10.3834 -7.6274 -7.33947 -3.54136 1.98848e-08 
1042 1 -6.23124 -7.6274 -8.80737 -3.54139 1.82121e-08 
1044 1 -6.23124 -5.08494 -8.80737 -3.54139 1.82121e-08 
959 1 -8.30734 -3.8137 -8.07342 -3.54137 1.06523e-08 
973 1 -8.30734 -7.6274 -5.87158 -3.54137 1.06523e-08 
974 1 -8.30734 -6.35617 -8.07342 -3.54137 1.06523e-08 
975 1 -8.30734 -5.08494 -5.87158 -3.54137 1.06523e-08 
977 1 -6.23124 -3.8137 -6.60553 -3.54139 1.82121e-08 
978 1 -6.23124 -6.35617 -6.60553 -3.54139 1.82121e-08 
982 1 -4.15521 -3.8137 -5.13763 -3.54098 7.52562e-07 
990 1 -4.15521 -6.35617 -5.13763 -3.54098 7.52562e-07 
1045 1 -4.15521 -5.08494 -7.33947 -3.54098 7.52562e-07 
1051 1 -2.07969 -3.8137 -8.07342 -3.53748 5.2e-05 
1053 1 -4.15521 -7.6274 -7.33947 -3.54098 7.52562e-07 
1054 1 -2.07969 -7.6274 -5.87158 -3.53748 5.2e-05 
1055 1 -2.07969 -6.35617 -8.07342 -3.53748 5.2e-05 
1056 1 -2.07969 -5.08494 -5.87158 -3.53748 5.2e-05 
1099 1 2.31582e-17 -7.6274 -8.80737 -3.54187 6.46414 
1104 1 -3.52906e-15 -5.08494 -8.80737 -3.54187 6.46414 
1100 1 1.8809e-17 -6.35617 -6.60553 -3.54187 6.46414 
1102 1 2.57668e-17 -3.8137 -6.60553 -3.54187 6.46414 
1106 1 2.07969 -6.35617 -8.07342 -3.53748 5.2e-05 
1107 1 2.07969 -3.8137 -8.07342 -3.53748 5.2e-05 
1157 1 2.07969 -7.6274 -5.87158 -3.53748 5.2e-05 
1166 1 2.07969 -5.08494 -5.87158 -3.53748 5.2e-05 
1167 1 4.15521 -5.08494 -7.33947 -3.54098 7.52562e-07 
1168 1 4.15521 -6.35617 -5.13763 -3.54098 7.52562e-07 
1169 1 4.15521 -3.8137 -5.13763 -3.54098 7.52562e-07 
1170 1 4.15521 -7.6274 -7.33947 -3.54098 7.52562e-07 
1171 1 6.23124 -7.6274 -8.80737 -3.54139 1.82121e-08 
1188 1 6.23124 -5.08494 -8.80737 -3.54139 1.82121e-08 
1172 1 6.23124 -6.35617 -6.60553 -3.54139 1.82121e-08 
1186 1 6.23124 -3.8137 -6.60553 -3.54139 1.82121e-08 
1190 1 8.30734 -6.35617 -8.07342 -3.54137 1.06523e-08 
1191 1 8.30734 -3.8137 -8.07342 -3.54137 1.06523e-08 
1271 1 8.30734 -7.6274 -5.87158 -3.54137 1.06523e-08 
1290 1 8.30734 -5.08494 -5.87158 -3.54137 1.06523e-08 
1295 1 12.4593 -7.6274 -8.80737 -3.54135 2.8224e-12 
1314 1 12.4593 -5.08494 -8.80737 -3.54135 2.8224e-12 
1291 1 10.3834 -5.08494 -7.33947 -3.54136 1.98848e-08 
1292 1 10.3834 -6.35617 -5.13763 -3.54136 1.98848e-08 
1293 1 10.3834 -3.8137 -5.13763 -3.54136 1.98848e-08 
1294 1 10.3834 -7.6274 -7.33947 -3.54136 1.98848e-08 
1296 1 12.4593 -6.35617 -6.60553 -3.54135 2.8224e-12 
1312 1 12.4593 -3.8137 -6.60553 -3.54135 2.8224e-12 
1429 1 12.4593 -5.08494 -4.40368 -3.54135 2.8224e-12 
1432 1 12.4593 -7.6274 -4.40368 -3.54135 2.8224e-12 
1316 1 14.5353 -6.35617 -8.07342 -3.54136 1.15768e-11 
1317 1 14.5353 -3.8137 -8.07342 -3.54136 1.15768e-11 
1433 1 14.5353 -7.6274 -5.87158 -3.54136 1.15768e-11 
1452 1 14.5353 -5.08494 -5.87158 -3.54136 1.15768e-11 
1453 1 16.6113 -5.08494 -7.33947 -3.54136 1.15768e-11 
1454 1 16.6113 -6.35617 -5.13763 -3.54136 1.15768e-11 
1455 1 16.6113 -3.8137 -5.13763 -3.54136 1.15768e-11 
1456 1 16.6113 -7.6274 -7.33947 -3.54136 1.15768e-11 
1457 1 18.6872 -7.6274 -8.80737 -3.54135 2.8224e-12 
1476 1 18.6872 -5.08494 -8.80737 -3.54135 2.8224e-12 
1458 1 18.6872 -6.35617 -6.60553 -3.54135 2.82241e-12 
1474 1 18.6872 -3.8137 -6.60553 -3.54135 2.82241e-12 
1478 1 20.7632 -6.35617 -8.07342 -3.54136 1.98848e-08 
1479 1 20.7632 -3.8137 -8.07342 -3.54136 1.98848e-08 
1627 1 18.6872 -5.08494 -4.40368 -3.54135 2.82241e-12 
1630 1 18.6872 -7.6274 -4.40368 -3.54135 2.82241e-12 
1631 1 20.7632 -7.6274 -5.87158 -3.54136 1.98848e-08 
1650 1 20.7632 -5.08494 -5.87158 -3.54136 1.98848e-08 
1655 1 24.9153 -7.6274 -8.80737 -3.54139 1.82121e-08 
1674 1 24.9153 -5.08494 -8.80737 -3.54139 1.82121e-08 
1651 1 22.8392 -5.08494 -7.33947 -3.54137 1.06523e-08 
1652 1 22.8392 -6.35617 -5.13763 -3.54137 1.06523e-08 
1653 1 22.8392 -3.8137 -5.13763 -3.54137 1.06523e-08 
1654 1 22.8392 -7.6274 -7.33947 -3.54137 1.06523e-08 
1656 1 24.9153 -6.35617 -6.60553 -3.54139 1.82121e-08 
1672 1 24.9153 -3.8137 -6.60553 -3.54139 1.82121e-08 
1825 1 24.9153 -5.08494 -4.40368 -3.54139 1.82121e-08 
1828 1 24.9153 -7.6274 -4.40368 -3.54139 1.82121e-08 
1676 1 26.9914 -6.35617 -8.07342 -3.54098 7.52562e-07 
1677 1 26.9914 -3.8137 -8.07342 -3.54098 7.52562e-07 
1829 1 26.9914 -7.6274 -5.87158 -3.54098 7.52562e-07 
1848 1 26.9914 -5.08494 -5.87158 -3.54098 7.52562e-07 
1849 1 29.0669 -5.08494 -7.33947 -3.53748 5.2e-05 
1850 1 29.0669 -6.35617 -5.13763 -3.53748 5.2e-05 
1851 1 29.0669 -3.8137 -5.13763 -3.53748 5.2e-05 
1852 1 29.0669 -7.6274 -7.33947 -3.53748 5.2e-05 
269 1 -31.1466 4.03236e-13 -4.40368 -3.54187 6.46414 
270 1 -31.1466 1.27123 -6.60553 -3.54187 6.46414 
271 1 -31.1466 -1.27123 -6.60553 -3.54187 6.46414 
275 1 -29.0669 1.27123 -5.13763 -3.53748 5.2e-05 
284 1 -31.1466 -2.54247 -4.40368 -3.54187 6.46414 
286 1 -29.0669 -1.27123 -5.13763 -3.53748 5.2e-05 
434 1 -29.0669 4.03234e-13 -7.33947 -3.53748 5.2e-05 
440 1 -26.9914 1.27123 -8.07342 -3.54098 7.52562e-07 
452 1 -29.0669 -2.54247 -7.33947 -3.53748 5.2e-05 
453 1 -26.9914 -2.54247 -5.87158 -3.54098 7.52562e-07 
454 1 -26.9914 -1.27123 -8.07342 -3.54098 7.52562e-07 
456 1 -26.9914 4.08563e-13 -5.87158 -3.54098 7.52562e-07 
633 1 -24.9153 -2.54247 -8.80737 -3.54139 1.82121e-08 
636 1 -24.9153 4.03237e-13 -8.80737 -3.54139 1.82121e-08 
457 1 -24.9153 4.01459e-13 -4.40368 -3.54139 1.82121e-08 
458 1 -24.9153 1.27123 -6.60553 -3.54139 1.82121e-08 
459 1 -24.9153 -1.27123 -6.60553 -3.54139 1.82121e-08 
463 1 -22.8392 1.27123 -5.13763 -3.54137 1.06523e-08 
476 1 -24.9153 -2.54247 -4.40368 -3.54139 1.82121e-08 
478 1 -22.8392 -1.27123 -5.13763 -3.54137 1.06523e-08 
637 1 -22.8392 4.03236e-13 -7.33947 -3.54137 1.06523e-08 
656 1 -22.8392 -2.54247 -7.33947 -3.54137 1.06523e-08 
801 1 -18.6872 -2.54247 -8.80737 -3.54135 2.82241e-12 
804 1 -18.6872 4.0501e-13 -8.80737 -3.54135 2.82241e-12 
643 1 -20.7632 1.27123 -8.07342 -3.54136 1.98848e-08 
657 1 -20.7632 -2.54247 -5.87158 -3.54136 1.98848e-08 
658 1 -20.7632 -1.27123 -8.07342 -3.54136 1.98848e-08 
660 1 -20.7632 4.03236e-13 -5.87158 -3.54136 1.98848e-08 
661 1 -18.6872 4.05011e-13 -4.40368 -3.54135 2.82241e-12 
662 1 -18.6872 1.27123 -6.60553 -3.54135 2.82241e-12 
663 1 -18.6872 -1.27123 -6.60553 -3.54135 2.82241e-12 
680 1 -18.6872 -2.54247 -4.40368 -3.54135 2.82241e-12 
667 1 -16.6113 1.27123 -5.13763 -3.54136 1.15768e-11 
682 1 -16.6113 -1.27123 -5.13763 -3.54136 1.15768e-11 
805 1 -16.6113 4.03234e-13 -7.33947 -3.54136 1.15768e-11 
811 1 -14.5353 1.27123 -8.07342 -3.54136 1.15768e-11 
824 1 -16.6113 -2.54247 -7.33947 -3.54136 1.15768e-11 
825 1 -14.5353 -2.54247 -5.87158 -3.54136 1.15768e-11 
826 1 -14.5353 -1.27123 -8.07342 -3.54136 1.15768e-11 
828 1 -14.5353 4.03235e-13 -5.87158 -3.54136 1.15768e-11 
933 1 -12.4593 -2.54247 -8.80737 -3.54135 2.8224e-12 
936 1 -12.4593 4.05011e-13 -8.80737 -3.54135 2.8224e-12 
829 1 -12.4593 4.05012e-13 -4.40368 -3.54135 2.8224e-12 
830 1 -12.4593 1.27123 -6.60553 -3.54135 2.8224e-12 
831 1 -12.4593 -1.27123 -6.60553 -3.54135 2.8224e-12 
835 1 -10.3834 1.27123 -5.13763 -3.54136 1.98848e-08 
848 1 -12.4593 -2.54247 -4.40368 -3.54135 2.8224e-12 
850 1 -10.3834 -1.27123 -5.13763 -3.54136 1.98848e-08 
937 1 -10.3834 4.01458e-13 -7.33947 -3.54136 1.98848e-08 
956 1 -10.3834 -2.54247 -7.33947 -3.54136 1.98848e-08 
1029 1 -6.23124 -2.54247 -8.80737 -3.54139 1.82121e-08 
1032 1 -6.23124 4.03235e-13 -8.80737 -3.54139 1.82121e-08 
943 1 -8.30734 1.27123 -8.07342 -3.54137 1.06523e-08 
957 1 -8.30734 -2.54247 -5.87158 -3.54137 1.06523e-08 
958 1 -8.30734 -1.27123 -8.07342 -3.54137 1.06523e-08 
960 1 -8.30734 4.05013e-13 -5.87158 -3.54137 1.06523e-08 
962 1 -6.23124 1.27123 -6.60553 -3.54139 1.82121e-08 
963 1 -6.23124 -1.27123 -6.60553 -3.54139 1.82121e-08 
967 1 -4.15521 1.27123 -5.13763 -3.54098 7.52562e-07 
981 1 -4.15521 -1.27123 -5.13763 -3.54098 7.52562e-07 
1033 1 -4.15521 4.05009e-13 -7.33947 -3.54098 7.52562e-07 
1039 1 -2.07969 1.27123 -8.07342 -3.53748 5.2e-05 
1048 1 -4.15521 -2.54247 -7.33947 -3.54098 7.52562e-07 
1049 1 -2.07969 -2.54247 -5.87158 -3.53748 5.2e-05 
1050 1 -2.07969 -1.27123 -8.07342 -3.53748 5.2e-05 
1052 1 -2.07969 4.03235e-13 -5.87158 -3.53748 5.2e-05 
1101 1 -3.5293e-15 -2.54247 -8.80737 -3.54187 6.46414 
1114 1 2.1275e-17 4.05013e-13 -8.80737 -3.54187 6.46414 
1103 1 -3.52594e-15 -1.27123 -6.60553 -3.54187 6.46414 
1112 1 -7.08067e-15 1.27123 -6.60553 -3.54187 6.46414 
1116 1 2.07969 -1.27123 -8.07342 -3.53748 5.2e-05 
1117 1 2.07969 1.27123 -8.07342 -3.53748 5.2e-05 
1163 1 2.07969 -2.54247 -5.87158 -3.53748 5.2e-05 
1180 1 2.07969 4.03236e-13 -5.87158 -3.53748 5.2e-05 
1181 1 4.15521 4.08563e-13 -7.33947 -3.54098 7.52562e-07 
1182 1 4.15521 -1.27123 -5.13763 -3.54098 7.52562e-07 
1183 1 4.15521 1.27123 -5.13763 -3.54098 7.52562e-07 
1184 1 4.15521 -2.54247 -7.33947 -3.54098 7.52562e-07 
1185 1 6.23124 -2.54247 -8.80737 -3.54139 1.82121e-08 
1204 1 6.23124 4.03234e-13 -8.80737 -3.54139 1.82121e-08 
1187 1 6.23124 -1.27123 -6.60553 -3.54139 1.82121e-08 
1202 1 6.23124 1.27123 -6.60553 -3.54139 1.82121e-08 
1206 1 8.30734 -1.27123 -8.07342 -3.54137 1.06523e-08 
1207 1 8.30734 1.27123 -8.07342 -3.54137 1.06523e-08 
1287 1 8.30734 -2.54247 -5.87158 -3.54137 1.06523e-08 
1306 1 8.30734 4.01457e-13 -5.87158 -3.54137 1.06523e-08 
1311 1 12.4593 -2.54247 -8.80737 -3.54135 2.8224e-12 
1330 1 12.4593 4.03233e-13 -8.80737 -3.54135 2.8224e-12 
1307 1 10.3834 4.01459e-13 -7.33947 -3.54136 1.98848e-08 
1308 1 10.3834 -1.27123 -5.13763 -3.54136 1.98848e-08 
1309 1 10.3834 1.27123 -5.13763 -3.54136 1.98848e-08 
1310 1 10.3834 -2.54247 -7.33947 -3.54136 1.98848e-08 
1313 1 12.4593 -1.27123 -6.60553 -3.54135 2.8224e-12 
1328 1 12.4593 1.27123 -6.60553 -3.54135 2.8224e-12 
1445 1 12.4593 4.05013e-13 -4.40368 -3.54135 2.8224e-12 
1448 1 12.4593 -2.54247 -4.40368 -3.54135 2.8224e-12 
1332 1 14.5353 -1.27123 -8.07342 -3.54136 1.15768e-11 
1333 1 14.5353 1.27123 -8.07342 -3.54136 1.15768e-11 
1449 1 14.5353 -2.54247 -5.87158 -3.54136 1.15768e-11 
1468 1 14.5353 4.03235e-13 -5.87158 -3.54136 1.15768e-11 
1469 1 16.6113 4.03235e-13 -7.33947 -3.54136 1.15768e-11 
1470 1 16.6113 -1.27123 -5.13763 -3.54136 1.15768e-11 
1471 1 16.6113 1.27123 -5.13763 -3.54136 1.15768e-11 
1472 1 16.6113 -2.54247 -7.33947 -3.54136 1.15768e-11 
1473 1 18.6872 -2.54247 -8.80737 -3.54135 2.8224e-12 
1492 1 18.6872 4.05012e-13 -8.80737 -3.54135 2.8224e-12 