ITEM: TIMESTEP
7
ITEM: NUMBER OF ATOMS
2160
ITEM: BOX BOUNDS pp pp pp
-3.1306818346827800e+01 3.1306818346827800e+01
-7.6685730419729996e+00 7.6685730419729996e+00
-1.3282358130224500e+01 1.3282358130224500e+01
ITEM: ATOMS id type x y z c_eng c_csym 
432 1 -31.3068 -3.83429 -11.0686 -3.54035 6.53411 
446 1 -31.3068 -7.66857 -8.85491 -3.54035 6.53411 
447 1 -31.3068 -6.39048 -11.0686 -3.54035 6.53411 
448 1 -31.3068 -5.11238 -8.85491 -3.54035 6.53411 
450 1 -29.2158 -3.83429 -9.59281 -3.53622 7.6089e-05 
451 1 -29.2158 -6.39048 -9.59281 -3.53622 7.6089e-05 
627 1 -29.2158 -7.66857 -11.8065 -3.53622 7.6089e-05 
628 1 -29.2158 -5.11238 -11.8065 -3.53622 7.6089e-05 
629 1 -27.1299 -5.11238 -10.3307 -3.5397 1.32716e-06 
630 1 -27.1299 -3.83429 -12.5444 -3.5397 1.32716e-06 
631 1 -27.1299 -6.39048 -12.5444 -3.5397 1.32716e-06 
649 1 -27.1299 -7.66857 -10.3307 -3.5397 1.32716e-06 
635 1 -25.0433 -3.83429 -11.0686 -3.54011 4.70314e-09 
650 1 -25.0433 -7.66857 -8.85491 -3.54011 4.70314e-09 
651 1 -25.0433 -6.39048 -11.0686 -3.54011 4.70314e-09 
652 1 -25.0433 -5.11238 -8.85491 -3.54011 4.70314e-09 
654 1 -22.9567 -3.83429 -9.59281 -3.54007 3.19226e-11 
655 1 -22.9567 -6.39048 -9.59281 -3.54007 3.19226e-11 
795 1 -22.9567 -7.66857 -11.8065 -3.54007 3.19226e-11 
796 1 -22.9567 -5.11238 -11.8065 -3.54007 3.19226e-11 
797 1 -20.87 -5.11238 -10.3307 -3.54007 3.99052e-12 
798 1 -20.87 -3.83429 -12.5444 -3.54007 3.99052e-12 
799 1 -20.87 -6.39048 -12.5444 -3.54007 3.99052e-12 
803 1 -18.7834 -3.83429 -11.0686 -3.54007 2.00907e-11 
817 1 -20.87 -7.66857 -10.3307 -3.54007 3.99052e-12 
818 1 -18.7834 -7.66857 -8.85491 -3.54007 2.00907e-11 
819 1 -18.7834 -6.39048 -11.0686 -3.54007 2.00907e-11 
820 1 -18.7834 -5.11238 -8.85491 -3.54007 2.00907e-11 
822 1 -16.6967 -3.83429 -9.59281 -3.54007 4.58438e-12 
823 1 -16.6967 -6.39048 -9.59281 -3.54007 4.58438e-12 
927 1 -16.6967 -7.66857 -11.8065 -3.54007 4.58437e-12 
928 1 -16.6967 -5.11238 -11.8065 -3.54007 4.58437e-12 
929 1 -14.6101 -5.11238 -10.3307 -3.54007 4.58439e-12 
930 1 -14.6101 -3.83429 -12.5444 -3.54007 4.58439e-12 
931 1 -14.6101 -6.39048 -12.5444 -3.54007 4.58439e-12 
949 1 -14.6101 -7.66857 -10.3307 -3.54007 4.58439e-12 
935 1 -12.5234 -3.83429 -11.0686 -3.54007 2.00907e-11 
950 1 -12.5234 -7.66857 -8.85491 -3.54007 2.00907e-11 
951 1 -12.5234 -6.39048 -11.0686 -3.54007 2.00907e-11 
952 1 -12.5234 -5.11238 -8.85491 -3.54007 2.00907e-11 
954 1 -10.4368 -3.83429 -9.59281 -3.54007 3.99052e-12 
955 1 -10.4368 -6.39048 -9.59281 -3.54007 3.99052e-12 
1023 1 -10.4368 -7.66857 -11.8065 -3.54007 3.99052e-12 
1024 1 -10.4368 -5.11238 -11.8065 -3.54007 3.99052e-12 
1025 1 -8.35016 -5.11238 -10.3307 -3.54007 3.19226e-11 
1026 1 -8.35016 -3.83429 -12.5444 -3.54007 3.19226e-11 
1027 1 -8.35016 -6.39048 -12.5444 -3.54007 3.19226e-11 
1031 1 -6.26352 -3.83429 -11.0686 -3.54011 4.70314e-09 
1041 1 -8.35016 -7.66857 -10.3307 -3.54007 3.19226e-11 
1042 1 -6.26352 -7.66857 -8.85491 -3.54011 4.70314e-09 
1043 1 -6.26352 -6.39048 -11.0686 -3.54011 4.70314e-09 
1044 1 -6.26352 -5.11238 -8.85491 -3.54011 4.70314e-09 
1046 1 -4.17691 -3.83429 -9.59281 -3.5397 1.32716e-06 
1047 1 -4.17691 -6.39048 -9.59281 -3.5397 1.32716e-06 
1074 1 -4.17691 -7.66857 -11.8065 -3.5397 1.32716e-06 
1075 1 -4.17691 -5.11238 -11.8065 -3.5397 1.32716e-06 
1076 1 -2.09097 -5.11238 -10.3307 -3.53622 7.6089e-05 
1077 1 -2.09097 -3.83429 -12.5444 -3.53622 7.6089e-05 
1078 1 -2.09097 -6.39048 -12.5444 -3.53622 7.6089e-05 
1080 1 -2.09097 -7.66857 -10.3307 -3.53622 7.6089e-05 
1082 1 2.59603e-16 -6.39048 -11.0686 -3.54035 6.53411 
1083 1 2.82656e-16 -3.83429 -11.0686 -3.54035 6.53411 
1085 1 2.09097 -6.39048 -12.5444 -3.53622 7.6089e-05 
1090 1 2.09097 -3.83429 -12.5444 -3.53622 7.6089e-05 
1099 1 3.48348e-16 -7.66857 -8.85491 -3.54035 6.53411 
1104 1 3.20728e-16 -5.11238 -8.85491 -3.54035 6.53411 
1105 1 2.09097 -5.11238 -10.3307 -3.53622 7.6089e-05 
1108 1 2.09097 -7.66857 -10.3307 -3.53622 7.6089e-05 
1109 1 4.17691 -7.66857 -11.8065 -3.5397 1.32716e-06 
1110 1 4.17691 -6.39048 -9.59281 -3.5397 1.32716e-06 
1120 1 4.17691 -3.83429 -9.59281 -3.5397 1.32716e-06 
1122 1 4.17691 -5.11238 -11.8065 -3.5397 1.32716e-06 
1124 1 6.26352 -6.39048 -11.0686 -3.54011 4.70314e-09 
1125 1 6.26352 -3.83429 -11.0686 -3.54011 4.70314e-09 
1127 1 8.35016 -6.39048 -12.5444 -3.54007 3.19226e-11 
1142 1 8.35016 -3.83429 -12.5444 -3.54007 3.19226e-11 
1171 1 6.26352 -7.66857 -8.85491 -3.54011 4.70314e-09 
1188 1 6.26352 -5.11238 -8.85491 -3.54011 4.70314e-09 
1189 1 8.35016 -5.11238 -10.3307 -3.54007 3.19226e-11 
1192 1 8.35016 -7.66857 -10.3307 -3.54007 3.19226e-11 
1193 1 10.4368 -7.66857 -11.8065 -3.54007 3.99052e-12 
1194 1 10.4368 -6.39048 -9.59281 -3.54007 3.99052e-12 
1210 1 10.4368 -3.83429 -9.59281 -3.54007 3.99052e-12 
1212 1 10.4368 -5.11238 -11.8065 -3.54007 3.99052e-12 
1214 1 12.5234 -6.39048 -11.0686 -3.54007 2.00907e-11 
1215 1 12.5234 -3.83429 -11.0686 -3.54007 2.00907e-11 
1295 1 12.5234 -7.66857 -8.85491 -3.54007 2.00907e-11 
1314 1 12.5234 -5.11238 -8.85491 -3.54007 2.00907e-11 
1217 1 14.6101 -6.39048 -12.5444 -3.54007 4.58439e-12 
1232 1 14.6101 -3.83429 -12.5444 -3.54007 4.58439e-12 
1315 1 14.6101 -5.11238 -10.3307 -3.54007 4.5844e-12 
1318 1 14.6101 -7.66857 -10.3307 -3.54007 4.5844e-12 
1319 1 16.6967 -7.66857 -11.8065 -3.54007 4.58438e-12 
1320 1 16.6967 -6.39048 -9.59281 -3.54007 4.58438e-12 
1336 1 16.6967 -3.83429 -9.59281 -3.54007 4.58438e-12 
1338 1 16.6967 -5.11238 -11.8065 -3.54007 4.58438e-12 
1340 1 18.7834 -6.39048 -11.0686 -3.54007 2.00907e-11 
1341 1 18.7834 -3.83429 -11.0686 -3.54007 2.00907e-11 
1343 1 20.87 -6.39048 -12.5444 -3.54007 3.99052e-12 
1358 1 20.87 -3.83429 -12.5444 -3.54007 3.99052e-12 
1457 1 18.7834 -7.66857 -8.85491 -3.54007 2.00907e-11 
1476 1 18.7834 -5.11238 -8.85491 -3.54007 2.00907e-11 
1477 1 20.87 -5.11238 -10.3307 -3.54007 3.99052e-12 
1480 1 20.87 -7.66857 -10.3307 -3.54007 3.99052e-12 
1481 1 22.9567 -7.66857 -11.8065 -3.54007 3.19226e-11 
1482 1 22.9567 -6.39048 -9.59281 -3.54007 3.19226e-11 
1498 1 22.9567 -3.83429 -9.59281 -3.54007 3.19226e-11 
1500 1 22.9567 -5.11238 -11.8065 -3.54007 3.19226e-11 
1502 1 25.0433 -6.39048 -11.0686 -3.54011 4.70314e-09 
1503 1 25.0433 -3.83429 -11.0686 -3.54011 4.70314e-09 
1655 1 25.0433 -7.66857 -8.85491 -3.54011 4.70314e-09 
1674 1 25.0433 -5.11238 -8.85491 -3.54011 4.70314e-09 
1505 1 27.1299 -6.39048 -12.5444 -3.5397 1.32716e-06 
1520 1 27.1299 -3.83429 -12.5444 -3.5397 1.32716e-06 
1675 1 27.1299 -5.11238 -10.3307 -3.5397 1.32716e-06 
1678 1 27.1299 -7.66857 -10.3307 -3.5397 1.32716e-06 
1679 1 29.2158 -7.66857 -11.8065 -3.53622 7.6089e-05 
1680 1 29.2158 -6.39048 -9.59281 -3.53622 7.6089e-05 
1696 1 29.2158 -3.83429 -9.59281 -3.53622 7.6089e-05 
1698 1 29.2158 -5.11238 -11.8065 -3.53622 7.6089e-05 
422 1 -31.3068 2.55619 -8.85491 -3.54035 6.53411 
424 1 -31.3068 1.2781 -11.0686 -3.54035 6.53411 
430 1 -31.3068 -2.55619 -8.85491 -3.54035 6.53411 
431 1 -31.3068 -1.2781 -11.0686 -3.54035 6.53411 
433 1 -31.3068 4.09906e-13 -8.85491 -3.54035 6.53411 
435 1 -29.2158 1.2781 -9.59281 -3.53622 7.6089e-05 
436 1 -29.2158 -1.2781 -9.59281 -3.53622 7.6089e-05 
604 1 -29.2158 2.55619 -11.8065 -3.53622 7.6089e-05 
612 1 -29.2158 -2.55619 -11.8065 -3.53622 7.6089e-05 
613 1 -29.2158 4.09586e-13 -11.8065 -3.53622 7.6089e-05 
614 1 -27.1299 3.97776e-13 -10.3307 -3.5397 1.32716e-06 
615 1 -27.1299 1.2781 -12.5444 -3.5397 1.32716e-06 
616 1 -27.1299 -1.2781 -12.5444 -3.5397 1.32716e-06 
617 1 -27.1299 2.55619 -10.3307 -3.5397 1.32716e-06 
632 1 -27.1299 -2.55619 -10.3307 -3.5397 1.32716e-06 
618 1 -25.0433 2.55619 -8.85491 -3.54011 4.70314e-09 
620 1 -25.0433 1.2781 -11.0686 -3.54011 4.70314e-09 
633 1 -25.0433 -2.55619 -8.85491 -3.54011 4.70314e-09 
634 1 -25.0433 -1.2781 -11.0686 -3.54011 4.70314e-09 
636 1 -25.0433 4.06355e-13 -8.85491 -3.54011 4.70314e-09 
638 1 -22.9567 1.2781 -9.59281 -3.54007 3.19226e-11 
639 1 -22.9567 -1.2781 -9.59281 -3.54007 3.19226e-11 
772 1 -22.9567 2.55619 -11.8065 -3.54007 3.19226e-11 
780 1 -22.9567 -2.55619 -11.8065 -3.54007 3.19226e-11 
781 1 -22.9567 4.04753e-13 -11.8065 -3.54007 3.19226e-11 
782 1 -20.87 4.0394e-13 -10.3307 -3.54007 3.99052e-12 
783 1 -20.87 1.2781 -12.5444 -3.54007 3.99052e-12 
784 1 -20.87 -1.2781 -12.5444 -3.54007 3.99052e-12 
785 1 -20.87 2.55619 -10.3307 -3.54007 3.99052e-12 
786 1 -18.7834 2.55619 -8.85491 -3.54007 2.00907e-11 
788 1 -18.7834 1.2781 -11.0686 -3.54007 2.00907e-11 
800 1 -20.87 -2.55619 -10.3307 -3.54007 3.99052e-12 
801 1 -18.7834 -2.55619 -8.85491 -3.54007 2.00907e-11 
802 1 -18.7834 -1.2781 -11.0686 -3.54007 2.00907e-11 
804 1 -18.7834 4.03179e-13 -8.85491 -3.54007 2.00907e-11 
806 1 -16.6967 1.2781 -9.59281 -3.54007 4.58438e-12 
807 1 -16.6967 -1.2781 -9.59281 -3.54007 4.58438e-12 
904 1 -16.6967 2.55619 -11.8065 -3.54007 4.58437e-12 
912 1 -16.6967 -2.55619 -11.8065 -3.54007 4.58437e-12 
913 1 -16.6967 4.02716e-13 -11.8065 -3.54007 4.58437e-12 
914 1 -14.6101 4.02882e-13 -10.3307 -3.54007 4.58439e-12 
915 1 -14.6101 1.2781 -12.5444 -3.54007 4.58439e-12 
916 1 -14.6101 -1.2781 -12.5444 -3.54007 4.58439e-12 
917 1 -14.6101 2.55619 -10.3307 -3.54007 4.58439e-12 
932 1 -14.6101 -2.55619 -10.3307 -3.54007 4.58439e-12 
918 1 -12.5234 2.55619 -8.85491 -3.54007 2.00907e-11 
920 1 -12.5234 1.2781 -11.0686 -3.54007 2.00907e-11 
933 1 -12.5234 -2.55619 -8.85491 -3.54007 2.00907e-11 
934 1 -12.5234 -1.2781 -11.0686 -3.54007 2.00907e-11 
936 1 -12.5234 4.02871e-13 -8.85491 -3.54007 2.00907e-11 
938 1 -10.4368 1.2781 -9.59281 -3.54007 3.99052e-12 
939 1 -10.4368 -1.2781 -9.59281 -3.54007 3.99052e-12 
1000 1 -10.4368 2.55619 -11.8065 -3.54007 3.99052e-12 
1008 1 -10.4368 -2.55619 -11.8065 -3.54007 3.99052e-12 
1009 1 -10.4368 4.0361e-13 -11.8065 -3.54007 3.99052e-12 
1010 1 -8.35016 4.05184e-13 -10.3307 -3.54007 3.19226e-11 
1011 1 -8.35016 1.2781 -12.5444 -3.54007 3.19226e-11 
1012 1 -8.35016 -1.2781 -12.5444 -3.54007 3.19226e-11 
1013 1 -8.35016 2.55619 -10.3307 -3.54007 3.19226e-11 
1014 1 -6.26352 2.55619 -8.85491 -3.54011 4.70314e-09 
1016 1 -6.26352 1.2781 -11.0686 -3.54011 4.70314e-09 
1028 1 -8.35016 -2.55619 -10.3307 -3.54007 3.19226e-11 
1029 1 -6.26352 -2.55619 -8.85491 -3.54011 4.70314e-09 
1030 1 -6.26352 -1.2781 -11.0686 -3.54011 4.70314e-09 
1032 1 -6.26352 4.06047e-13 -8.85491 -3.54011 4.70314e-09 
1034 1 -4.17691 1.2781 -9.59281 -3.5397 1.32716e-06 
1035 1 -4.17691 -1.2781 -9.59281 -3.5397 1.32716e-06 
1060 1 -4.17691 2.55619 -11.8065 -3.5397 1.32716e-06 
1067 1 -4.17691 -2.55619 -11.8065 -3.5397 1.32716e-06 
1068 1 -4.17691 3.98145e-13 -11.8065 -3.5397 1.32716e-06 
1069 1 -2.09097 4.0988e-13 -10.3307 -3.53622 7.6089e-05 
1070 1 -2.09097 1.2781 -12.5444 -3.53622 7.6089e-05 
1071 1 -2.09097 -1.2781 -12.5444 -3.53622 7.6089e-05 
1072 1 -2.09097 2.55619 -10.3307 -3.53622 7.6089e-05 
1079 1 -2.09097 -2.55619 -10.3307 -3.53622 7.6089e-05 
1087 1 -6.92425e-17 -1.2781 -11.0686 -3.54035 6.53411 
1088 1 -5.93402e-16 1.2781 -11.0686 -3.54035 6.53411 
1091 1 2.09097 -1.2781 -12.5444 -3.53622 7.6089e-05 
1096 1 2.09097 1.2781 -12.5444 -3.53622 7.6089e-05 
1101 1 -4.28599e-16 -2.55619 -8.85491 -3.54035 6.53411 
1111 1 -1.19213e-16 2.55619 -8.85491 -3.54035 6.53411 
1114 1 3.46572e-17 4.09832e-13 -8.85491 -3.54035 6.53411 
1115 1 2.09097 4.10017e-13 -10.3307 -3.53622 7.6089e-05 
1118 1 2.09097 -2.55619 -10.3307 -3.53622 7.6089e-05 
1119 1 4.17691 -2.55619 -11.8065 -3.5397 1.32716e-06 
1121 1 4.17691 -1.2781 -9.59281 -3.5397 1.32716e-06 
1133 1 2.09097 2.55619 -10.3307 -3.53622 7.6089e-05 
1134 1 4.17691 2.55619 -11.8065 -3.5397 1.32716e-06 
1135 1 4.17691 1.2781 -9.59281 -3.5397 1.32716e-06 
1137 1 4.17691 3.97644e-13 -11.8065 -3.5397 1.32716e-06 
1139 1 6.26352 -1.2781 -11.0686 -3.54011 4.70314e-09 
1140 1 6.26352 1.2781 -11.0686 -3.54011 4.70314e-09 
1143 1 8.35016 -1.2781 -12.5444 -3.54007 3.19226e-11 
1150 1 8.35016 1.2781 -12.5444 -3.54007 3.19226e-11 
1185 1 6.26352 -2.55619 -8.85491 -3.54011 4.70314e-09 
1201 1 6.26352 2.55619 -8.85491 -3.54011 4.70314e-09 
1204 1 6.26352 4.06068e-13 -8.85491 -3.54011 4.70314e-09 
1205 1 8.35016 4.04855e-13 -10.3307 -3.54007 3.19226e-11 
1208 1 8.35016 -2.55619 -10.3307 -3.54007 3.19226e-11 
1223 1 8.35016 2.55619 -10.3307 -3.54007 3.19226e-11 
1209 1 10.4368 -2.55619 -11.8065 -3.54007 3.99052e-12 
1211 1 10.4368 -1.2781 -9.59281 -3.54007 3.99052e-12 
1224 1 10.4368 2.55619 -11.8065 -3.54007 3.99052e-12 
1225 1 10.4368 1.2781 -9.59281 -3.54007 3.99052e-12 
1227 1 10.4368 4.03259e-13 -11.8065 -3.54007 3.99052e-12 
1229 1 12.5234 -1.2781 -11.0686 -3.54007 2.00907e-11 
1230 1 12.5234 1.2781 -11.0686 -3.54007 2.00907e-11 
1311 1 12.5234 -2.55619 -8.85491 -3.54007 2.00907e-11 
1327 1 12.5234 2.55619 -8.85491 -3.54007 2.00907e-11 
1330 1 12.5234 4.03075e-13 -8.85491 -3.54007 2.00907e-11 
1233 1 14.6101 -1.2781 -12.5444 -3.54007 4.58439e-12 
1240 1 14.6101 1.2781 -12.5444 -3.54007 4.58439e-12 
1331 1 14.6101 4.02966e-13 -10.3307 -3.54007 4.5844e-12 
1334 1 14.6101 -2.55619 -10.3307 -3.54007 4.5844e-12 
1335 1 16.6967 -2.55619 -11.8065 -3.54007 4.58438e-12 
1337 1 16.6967 -1.2781 -9.59281 -3.54007 4.58438e-12 
1349 1 14.6101 2.55619 -10.3307 -3.54007 4.5844e-12 
1350 1 16.6967 2.55619 -11.8065 -3.54007 4.58438e-12 
1351 1 16.6967 1.2781 -9.59281 -3.54007 4.58438e-12 
1353 1 16.6967 4.02753e-13 -11.8065 -3.54007 4.58438e-12 
1355 1 18.7834 -1.2781 -11.0686 -3.54007 2.00907e-11 
1356 1 18.7834 1.2781 -11.0686 -3.54007 2.00907e-11 
1359 1 20.87 -1.2781 -12.5444 -3.54007 3.99052e-12 
1366 1 20.87 1.2781 -12.5444 -3.54007 3.99052e-12 
1473 1 18.7834 -2.55619 -8.85491 -3.54007 2.00907e-11 
1489 1 18.7834 2.55619 -8.85491 -3.54007 2.00907e-11 
1492 1 18.7834 4.02905e-13 -8.85491 -3.54007 2.00907e-11 
1493 1 20.87 4.03721e-13 -10.3307 -3.54007 3.99052e-12 
1496 1 20.87 -2.55619 -10.3307 -3.54007 3.99052e-12 
1511 1 20.87 2.55619 -10.3307 -3.54007 3.99052e-12 
1497 1 22.9567 -2.55619 -11.8065 -3.54007 3.19226e-11 
1499 1 22.9567 -1.2781 -9.59281 -3.54007 3.19226e-11 
1512 1 22.9567 2.55619 -11.8065 -3.54007 3.19226e-11 
1513 1 22.9567 1.2781 -9.59281 -3.54007 3.19226e-11 
1515 1 22.9567 4.05065e-13 -11.8065 -3.54007 3.19226e-11 
1517 1 25.0433 -1.2781 -11.0686 -3.54011 4.70314e-09 
1518 1 25.0433 1.2781 -11.0686 -3.54011 4.70314e-09 
1671 1 25.0433 -2.55619 -8.85491 -3.54011 4.70314e-09 
1687 1 25.0433 2.55619 -8.85491 -3.54011 4.70314e-09 
1690 1 25.0433 4.0593e-13 -8.85491 -3.54011 4.70314e-09 
1521 1 27.1299 -1.2781 -12.5444 -3.5397 1.32716e-06 
1528 1 27.1299 1.2781 -12.5444 -3.5397 1.32716e-06 
1691 1 27.1299 3.97732e-13 -10.3307 -3.5397 1.32716e-06 
1694 1 27.1299 -2.55619 -10.3307 -3.5397 1.32716e-06 
1695 1 29.2158 -2.55619 -11.8065 -3.53622 7.6089e-05 
1697 1 29.2158 -1.2781 -9.59281 -3.53622 7.6089e-05 
1704 1 27.1299 2.55619 -10.3307 -3.5397 1.32716e-06 
1705 1 29.2158 2.55619 -11.8065 -3.53622 7.6089e-05 
1706 1 29.2158 1.2781 -9.59281 -3.53622 7.6089e-05 
1708 1 29.2158 4.10056e-13 -11.8065 -3.53622 7.6089e-05 
421 1 -31.3068 6.39048 -11.0686 -3.54035 6.53411 
423 1 -31.3068 3.83429 -11.0686 -3.54035 6.53411 
425 1 -31.3068 5.11238 -8.85491 -3.54035 6.53411 
427 1 -29.2158 6.39048 -9.59281 -3.53622 7.6089e-05 
428 1 -29.2158 3.83429 -9.59281 -3.53622 7.6089e-05 
605 1 -29.2158 5.11238 -11.8065 -3.53622 7.6089e-05 
606 1 -27.1299 5.11238 -10.3307 -3.5397 1.32716e-06 
607 1 -27.1299 6.39048 -12.5444 -3.5397 1.32716e-06 
608 1 -27.1299 3.83429 -12.5444 -3.5397 1.32716e-06 
609 1 -25.0433 6.39048 -11.0686 -3.54011 4.70314e-09 
619 1 -25.0433 3.83429 -11.0686 -3.54011 4.70314e-09 
621 1 -25.0433 5.11238 -8.85491 -3.54011 4.70314e-09 
623 1 -22.9567 6.39048 -9.59281 -3.54007 3.19226e-11 
624 1 -22.9567 3.83429 -9.59281 -3.54007 3.19226e-11 
773 1 -22.9567 5.11238 -11.8065 -3.54007 3.19226e-11 
774 1 -20.87 5.11238 -10.3307 -3.54007 3.99052e-12 
775 1 -20.87 6.39048 -12.5444 -3.54007 3.99052e-12 
776 1 -20.87 3.83429 -12.5444 -3.54007 3.99052e-12 
777 1 -18.7834 6.39048 -11.0686 -3.54007 2.00907e-11 
787 1 -18.7834 3.83429 -11.0686 -3.54007 2.00907e-11 
789 1 -18.7834 5.11238 -8.85491 -3.54007 2.00907e-11 
791 1 -16.6967 6.39048 -9.59281 -3.54007 4.58438e-12 
792 1 -16.6967 3.83429 -9.59281 -3.54007 4.58438e-12 
905 1 -16.6967 5.11238 -11.8065 -3.54007 4.58437e-12 
906 1 -14.6101 5.11238 -10.3307 -3.54007 4.58439e-12 
907 1 -14.6101 6.39048 -12.5444 -3.54007 4.58439e-12 
908 1 -14.6101 3.83429 -12.5444 -3.54007 4.58439e-12 
909 1 -12.5234 6.39048 -11.0686 -3.54007 2.00907e-11 
919 1 -12.5234 3.83429 -11.0686 -3.54007 2.00907e-11 
921 1 -12.5234 5.11238 -8.85491 -3.54007 2.00907e-11 
923 1 -10.4368 6.39048 -9.59281 -3.54007 3.99052e-12 
924 1 -10.4368 3.83429 -9.59281 -3.54007 3.99052e-12 
1001 1 -10.4368 5.11238 -11.8065 -3.54007 3.99052e-12 
1002 1 -8.35016 5.11238 -10.3307 -3.54007 3.19226e-11 
1003 1 -8.35016 6.39048 -12.5444 -3.54007 3.19226e-11 
1004 1 -8.35016 3.83429 -12.5444 -3.54007 3.19226e-11 
1005 1 -6.26352 6.39048 -11.0686 -3.54011 4.70314e-09 
1015 1 -6.26352 3.83429 -11.0686 -3.54011 4.70314e-09 
1017 1 -6.26352 5.11238 -8.85491 -3.54011 4.70314e-09 
1019 1 -4.17691 6.39048 -9.59281 -3.5397 1.32716e-06 
1020 1 -4.17691 3.83429 -9.59281 -3.5397 1.32716e-06 
1061 1 -4.17691 5.11238 -11.8065 -3.5397 1.32716e-06 
1062 1 -2.09097 5.11238 -10.3307 -3.53622 7.6089e-05 
1063 1 -2.09097 6.39048 -12.5444 -3.53622 7.6089e-05 
1064 1 -2.09097 3.83429 -12.5444 -3.53622 7.6089e-05 
1093 1 -1.57658e-16 3.83429 -11.0686 -3.54035 6.53411 
1094 1 2.2961e-16 6.39048 -11.0686 -3.54035 6.53411 
1097 1 2.09097 3.83429 -12.5444 -3.53622 7.6089e-05 
1098 1 2.09097 6.39048 -12.5444 -3.53622 7.6089e-05 
1129 1 2.44273e-16 5.11238 -8.85491 -3.54035 6.53411 
1130 1 2.09097 5.11238 -10.3307 -3.53622 7.6089e-05 
1136 1 4.17691 3.83429 -9.59281 -3.5397 1.32716e-06 
1144 1 4.17691 6.39048 -9.59281 -3.5397 1.32716e-06 
1145 1 4.17691 5.11238 -11.8065 -3.5397 1.32716e-06 
1147 1 6.26352 3.83429 -11.0686 -3.54011 4.70314e-09 
1148 1 6.26352 6.39048 -11.0686 -3.54011 4.70314e-09 
1151 1 8.35016 3.83429 -12.5444 -3.54007 3.19226e-11 
1152 1 8.35016 6.39048 -12.5444 -3.54007 3.19226e-11 
1219 1 6.26352 5.11238 -8.85491 -3.54011 4.70314e-09 
1220 1 8.35016 5.11238 -10.3307 -3.54007 3.19226e-11 
1226 1 10.4368 3.83429 -9.59281 -3.54007 3.99052e-12 
1234 1 10.4368 6.39048 -9.59281 -3.54007 3.99052e-12 
1235 1 10.4368 5.11238 -11.8065 -3.54007 3.99052e-12 
1237 1 12.5234 3.83429 -11.0686 -3.54007 2.00907e-11 
1238 1 12.5234 6.39048 -11.0686 -3.54007 2.00907e-11 
1345 1 12.5234 5.11238 -8.85491 -3.54007 2.00907e-11 
1241 1 14.6101 3.83429 -12.5444 -3.54007 4.58439e-12 
1242 1 14.6101 6.39048 -12.5444 -3.54007 4.58439e-12 
1346 1 14.6101 5.11238 -10.3307 -3.54007 4.5844e-12 
1352 1 16.6967 3.83429 -9.59281 -3.54007 4.58438e-12 
1360 1 16.6967 6.39048 -9.59281 -3.54007 4.58438e-12 
1361 1 16.6967 5.11238 -11.8065 -3.54007 4.58438e-12 
1363 1 18.7834 3.83429 -11.0686 -3.54007 2.00907e-11 
1364 1 18.7834 6.39048 -11.0686 -3.54007 2.00907e-11 
1367 1 20.87 3.83429 -12.5444 -3.54007 3.99052e-12 
1368 1 20.87 6.39048 -12.5444 -3.54007 3.99052e-12 
1507 1 18.7834 5.11238 -8.85491 -3.54007 2.00907e-11 
1508 1 20.87 5.11238 -10.3307 -3.54007 3.99052e-12 
1514 1 22.9567 3.83429 -9.59281 -3.54007 3.19226e-11 
1522 1 22.9567 6.39048 -9.59281 -3.54007 3.19226e-11 
1523 1 22.9567 5.11238 -11.8065 -3.54007 3.19226e-11 
1525 1 25.0433 3.83429 -11.0686 -3.54011 4.70314e-09 
1526 1 25.0433 6.39048 -11.0686 -3.54011 4.70314e-09 
1700 1 25.0433 5.11238 -8.85491 -3.54011 4.70314e-09 
1529 1 27.1299 3.83429 -12.5444 -3.5397 1.32716e-06 
1530 1 27.1299 6.39048 -12.5444 -3.5397 1.32716e-06 
1701 1 27.1299 5.11238 -10.3307 -3.5397 1.32716e-06 
1707 1 29.2158 3.83429 -9.59281 -3.53622 7.6089e-05 
1709 1 29.2158 6.39048 -9.59281 -3.53622 7.6089e-05 
1710 1 29.2158 5.11238 -11.8065 -3.53622 7.6089e-05 
281 1 -31.3068 -5.11238 -4.42745 -3.54035 6.53411 
282 1 -31.3068 -3.83429 -6.64118 -3.54035 6.53411 
283 1 -31.3068 -6.39048 -6.64118 -3.54035 6.53411 
287 1 -29.2158 -3.83429 -5.16536 -3.53622 7.6089e-05 
301 1 -31.3068 -7.66857 -4.42745 -3.54035 6.53411 
303 1 -29.2158 -6.39048 -5.16536 -3.53622 7.6089e-05 
449 1 -29.2158 -5.11238 -7.37909 -3.53622 7.6089e-05 
455 1 -27.1299 -3.83429 -8.117 -3.5397 1.32716e-06 
469 1 -29.2158 -7.66857 -7.37909 -3.53622 7.6089e-05 
470 1 -27.1299 -7.66857 -5.90327 -3.5397 1.32716e-06 
471 1 -27.1299 -6.39048 -8.117 -3.5397 1.32716e-06 
472 1 -27.1299 -5.11238 -5.90327 -3.5397 1.32716e-06 
473 1 -25.0433 -5.11238 -4.42745 -3.54011 4.70314e-09 
474 1 -25.0433 -3.83429 -6.64118 -3.54011 4.70314e-09 
475 1 -25.0433 -6.39048 -6.64118 -3.54011 4.70314e-09 
479 1 -22.9567 -3.83429 -5.16536 -3.54007 3.19226e-11 
493 1 -25.0433 -7.66857 -4.42745 -3.54011 4.70314e-09 
495 1 -22.9567 -6.39048 -5.16536 -3.54007 3.19226e-11 
653 1 -22.9567 -5.11238 -7.37909 -3.54007 3.19226e-11 
673 1 -22.9567 -7.66857 -7.37909 -3.54007 3.19226e-11 
659 1 -20.87 -3.83429 -8.117 -3.54007 3.99052e-12 
674 1 -20.87 -7.66857 -5.90327 -3.54007 3.99052e-12 
675 1 -20.87 -6.39048 -8.117 -3.54007 3.99052e-12 
676 1 -20.87 -5.11238 -5.90327 -3.54007 3.99052e-12 
677 1 -18.7834 -5.11238 -4.42745 -3.54007 2.00907e-11 
678 1 -18.7834 -3.83429 -6.64118 -3.54007 2.00907e-11 
679 1 -18.7834 -6.39048 -6.64118 -3.54007 2.00907e-11 
697 1 -18.7834 -7.66857 -4.42745 -3.54007 2.00907e-11 
683 1 -16.6967 -3.83429 -5.16536 -3.54007 4.58437e-12 
699 1 -16.6967 -6.39048 -5.16536 -3.54007 4.58437e-12 
821 1 -16.6967 -5.11238 -7.37909 -3.54007 4.58437e-12 
827 1 -14.6101 -3.83429 -8.117 -3.54007 4.58439e-12 
841 1 -16.6967 -7.66857 -7.37909 -3.54007 4.58437e-12 
842 1 -14.6101 -7.66857 -5.90327 -3.54007 4.58439e-12 
843 1 -14.6101 -6.39048 -8.117 -3.54007 4.58439e-12 
844 1 -14.6101 -5.11238 -5.90327 -3.54007 4.58439e-12 
845 1 -12.5234 -5.11238 -4.42745 -3.54007 2.00907e-11 
846 1 -12.5234 -3.83429 -6.64118 -3.54007 2.00907e-11 
847 1 -12.5234 -6.39048 -6.64118 -3.54007 2.00907e-11 
851 1 -10.4368 -3.83429 -5.16536 -3.54007 3.99052e-12 
865 1 -12.5234 -7.66857 -4.42745 -3.54007 2.00907e-11 
867 1 -10.4368 -6.39048 -5.16536 -3.54007 3.99052e-12 
953 1 -10.4368 -5.11238 -7.37909 -3.54007 3.99052e-12 
972 1 -10.4368 -7.66857 -7.37909 -3.54007 3.99052e-12 
959 1 -8.35016 -3.83429 -8.117 -3.54007 3.19226e-11 
973 1 -8.35016 -7.66857 -5.90327 -3.54007 3.19226e-11 
974 1 -8.35016 -6.39048 -8.117 -3.54007 3.19226e-11 
975 1 -8.35016 -5.11238 -5.90327 -3.54007 3.19226e-11 
976 1 -6.26352 -5.11238 -4.42745 -3.54011 4.70314e-09 
977 1 -6.26352 -3.83429 -6.64118 -3.54011 4.70314e-09 
978 1 -6.26352 -6.39048 -6.64118 -3.54011 4.70314e-09 
988 1 -6.26352 -7.66857 -4.42745 -3.54011 4.70314e-09 
982 1 -4.17691 -3.83429 -5.16536 -3.5397 1.32716e-06 
990 1 -4.17691 -6.39048 -5.16536 -3.5397 1.32716e-06 
1045 1 -4.17691 -5.11238 -7.37909 -3.5397 1.32716e-06 
1051 1 -2.09097 -3.83429 -8.117 -3.53622 7.6089e-05 
1053 1 -4.17691 -7.66857 -7.37909 -3.5397 1.32716e-06 
1054 1 -2.09097 -7.66857 -5.90327 -3.53622 7.6089e-05 
1055 1 -2.09097 -6.39048 -8.117 -3.53622 7.6089e-05 
1056 1 -2.09097 -5.11238 -5.90327 -3.53622 7.6089e-05 
1100 1 -1.8615e-16 -6.39048 -6.64118 -3.54035 6.53411 
1102 1 1.42655e-16 -3.83429 -6.64118 -3.54035 6.53411 
1106 1 2.09097 -6.39048 -8.117 -3.53622 7.6089e-05 
1107 1 2.09097 -3.83429 -8.117 -3.53622 7.6089e-05 
1153 1 -3.12181e-16 -5.11238 -4.42745 -3.54035 6.53411 
1156 1 -1.91362e-16 -7.66857 -4.42745 -3.54035 6.53411 
1157 1 2.09097 -7.66857 -5.90327 -3.53622 7.6089e-05 
1166 1 2.09097 -5.11238 -5.90327 -3.53622 7.6089e-05 
1167 1 4.17691 -5.11238 -7.37909 -3.5397 1.32716e-06 
1168 1 4.17691 -6.39048 -5.16536 -3.5397 1.32716e-06 
1169 1 4.17691 -3.83429 -5.16536 -3.5397 1.32716e-06 
1170 1 4.17691 -7.66857 -7.37909 -3.5397 1.32716e-06 
1172 1 6.26352 -6.39048 -6.64118 -3.54011 4.70314e-09 
1186 1 6.26352 -3.83429 -6.64118 -3.54011 4.70314e-09 
1190 1 8.35016 -6.39048 -8.117 -3.54007 3.19226e-11 
1191 1 8.35016 -3.83429 -8.117 -3.54007 3.19226e-11 
1267 1 6.26352 -5.11238 -4.42745 -3.54011 4.70314e-09 
1270 1 6.26352 -7.66857 -4.42745 -3.54011 4.70314e-09 
1271 1 8.35016 -7.66857 -5.90327 -3.54007 3.19226e-11 
1290 1 8.35016 -5.11238 -5.90327 -3.54007 3.19226e-11 
1291 1 10.4368 -5.11238 -7.37909 -3.54007 3.99052e-12 
1292 1 10.4368 -6.39048 -5.16536 -3.54007 3.99052e-12 
1293 1 10.4368 -3.83429 -5.16536 -3.54007 3.99052e-12 
1294 1 10.4368 -7.66857 -7.37909 -3.54007 3.99052e-12 
1296 1 12.5234 -6.39048 -6.64118 -3.54007 2.00907e-11 
1312 1 12.5234 -3.83429 -6.64118 -3.54007 2.00907e-11 
1429 1 12.5234 -5.11238 -4.42745 -3.54007 2.00907e-11 
1432 1 12.5234 -7.66857 -4.42745 -3.54007 2.00907e-11 
1316 1 14.6101 -6.39048 -8.117 -3.54007 4.5844e-12 
1317 1 14.6101 -3.83429 -8.117 -3.54007 4.5844e-12 
1433 1 14.6101 -7.66857 -5.90327 -3.54007 4.5844e-12 
1452 1 14.6101 -5.11238 -5.90327 -3.54007 4.5844e-12 
1453 1 16.6967 -5.11238 -7.37909 -3.54007 4.58438e-12 
1454 1 16.6967 -6.39048 -5.16536 -3.54007 4.58438e-12 
1455 1 16.6967 -3.83429 -5.16536 -3.54007 4.58438e-12 
1456 1 16.6967 -7.66857 -7.37909 -3.54007 4.58438e-12 
1458 1 18.7834 -6.39048 -6.64118 -3.54007 2.00907e-11 
1474 1 18.7834 -3.83429 -6.64118 -3.54007 2.00907e-11 
1478 1 20.87 -6.39048 -8.117 -3.54007 3.99052e-12 
1479 1 20.87 -3.83429 -8.117 -3.54007 3.99052e-12 
1627 1 18.7834 -5.11238 -4.42745 -3.54007 2.00907e-11 
1630 1 18.7834 -7.66857 -4.42745 -3.54007 2.00907e-11 
1631 1 20.87 -7.66857 -5.90327 -3.54007 3.99052e-12 
1650 1 20.87 -5.11238 -5.90327 -3.54007 3.99052e-12 
1651 1 22.9567 -5.11238 -7.37909 -3.54007 3.19226e-11 
1652 1 22.9567 -6.39048 -5.16536 -3.54007 3.19226e-11 
1653 1 22.9567 -3.83429 -5.16536 -3.54007 3.19226e-11 
1654 1 22.9567 -7.66857 -7.37909 -3.54007 3.19226e-11 
1656 1 25.0433 -6.39048 -6.64118 -3.54011 4.70314e-09 
1672 1 25.0433 -3.83429 -6.64118 -3.54011 4.70314e-09 
1825 1 25.0433 -5.11238 -4.42745 -3.54011 4.70314e-09 
1828 1 25.0433 -7.66857 -4.42745 -3.54011 4.70314e-09 
1676 1 27.1299 -6.39048 -8.117 -3.5397 1.32716e-06 
1677 1 27.1299 -3.83429 -8.117 -3.5397 1.32716e-06 
1829 1 27.1299 -7.66857 -5.90327 -3.5397 1.32716e-06 
1848 1 27.1299 -5.11238 -5.90327 -3.5397 1.32716e-06 
1849 1 29.2158 -5.11238 -7.37909 -3.53622 7.6089e-05 
1850 1 29.2158 -6.39048 -5.16536 -3.53622 7.6089e-05 
1851 1 29.2158 -3.83429 -5.16536 -3.53622 7.6089e-05 
1852 1 29.2158 -7.66857 -7.37909 -3.53622 7.6089e-05 
269 1 -31.3068 4.09367e-13 -4.42745 -3.54035 6.53411 
270 1 -31.3068 1.2781 -6.64118 -3.54035 6.53411 
271 1 -31.3068 -1.2781 -6.64118 -3.54035 6.53411 
272 1 -31.3068 2.55619 -4.42745 -3.54035 6.53411 
275 1 -29.2158 1.2781 -5.16536 -3.53622 7.6089e-05 
284 1 -31.3068 -2.55619 -4.42745 -3.54035 6.53411 
286 1 -29.2158 -1.2781 -5.16536 -3.53622 7.6089e-05 
434 1 -29.2158 4.0962e-13 -7.37909 -3.53622 7.6089e-05 
437 1 -29.2158 2.55619 -7.37909 -3.53622 7.6089e-05 
438 1 -27.1299 2.55619 -5.90327 -3.5397 1.32716e-06 
440 1 -27.1299 1.2781 -8.117 -3.5397 1.32716e-06 
452 1 -29.2158 -2.55619 -7.37909 -3.53622 7.6089e-05 
453 1 -27.1299 -2.55619 -5.90327 -3.5397 1.32716e-06 
454 1 -27.1299 -1.2781 -8.117 -3.5397 1.32716e-06 
456 1 -27.1299 3.97598e-13 -5.90327 -3.5397 1.32716e-06 
457 1 -25.0433 4.06054e-13 -4.42745 -3.54011 4.70314e-09 
458 1 -25.0433 1.2781 -6.64118 -3.54011 4.70314e-09 
459 1 -25.0433 -1.2781 -6.64118 -3.54011 4.70314e-09 
460 1 -25.0433 2.55619 -4.42745 -3.54011 4.70314e-09 
463 1 -22.9567 1.2781 -5.16536 -3.54007 3.19226e-11 
476 1 -25.0433 -2.55619 -4.42745 -3.54011 4.70314e-09 
478 1 -22.9567 -1.2781 -5.16536 -3.54007 3.19226e-11 
637 1 -22.9567 4.05854e-13 -7.37909 -3.54007 3.19226e-11 
640 1 -22.9567 2.55619 -7.37909 -3.54007 3.19226e-11 
656 1 -22.9567 -2.55619 -7.37909 -3.54007 3.19226e-11 
641 1 -20.87 2.55619 -5.90327 -3.54007 3.99052e-12 
643 1 -20.87 1.2781 -8.117 -3.54007 3.99052e-12 
657 1 -20.87 -2.55619 -5.90327 -3.54007 3.99052e-12 
658 1 -20.87 -1.2781 -8.117 -3.54007 3.99052e-12 
660 1 -20.87 4.03614e-13 -5.90327 -3.54007 3.99052e-12 
661 1 -18.7834 4.03186e-13 -4.42745 -3.54007 2.00907e-11 
662 1 -18.7834 1.2781 -6.64118 -3.54007 2.00907e-11 
663 1 -18.7834 -1.2781 -6.64118 -3.54007 2.00907e-11 
664 1 -18.7834 2.55619 -4.42745 -3.54007 2.00907e-11 
680 1 -18.7834 -2.55619 -4.42745 -3.54007 2.00907e-11 
667 1 -16.6967 1.2781 -5.16536 -3.54007 4.58437e-12 
682 1 -16.6967 -1.2781 -5.16536 -3.54007 4.58437e-12 
805 1 -16.6967 4.03352e-13 -7.37909 -3.54007 4.58437e-12 
808 1 -16.6967 2.55619 -7.37909 -3.54007 4.58437e-12 
809 1 -14.6101 2.55619 -5.90327 -3.54007 4.58439e-12 
811 1 -14.6101 1.2781 -8.117 -3.54007 4.58439e-12 
824 1 -16.6967 -2.55619 -7.37909 -3.54007 4.58437e-12 
825 1 -14.6101 -2.55619 -5.90327 -3.54007 4.58439e-12 
826 1 -14.6101 -1.2781 -8.117 -3.54007 4.58439e-12 
828 1 -14.6101 4.03105e-13 -5.90327 -3.54007 4.58439e-12 
829 1 -12.5234 4.03054e-13 -4.42745 -3.54007 2.00907e-11 
830 1 -12.5234 1.2781 -6.64118 -3.54007 2.00907e-11 
831 1 -12.5234 -1.2781 -6.64118 -3.54007 2.00907e-11 
832 1 -12.5234 2.55619 -4.42745 -3.54007 2.00907e-11 
835 1 -10.4368 1.2781 -5.16536 -3.54007 3.99052e-12 
848 1 -12.5234 -2.55619 -4.42745 -3.54007 2.00907e-11 
850 1 -10.4368 -1.2781 -5.16536 -3.54007 3.99052e-12 
937 1 -10.4368 4.03626e-13 -7.37909 -3.54007 3.99052e-12 
940 1 -10.4368 2.55619 -7.37909 -3.54007 3.99052e-12 
956 1 -10.4368 -2.55619 -7.37909 -3.54007 3.99052e-12 
941 1 -8.35016 2.55619 -5.90327 -3.54007 3.19226e-11 
943 1 -8.35016 1.2781 -8.117 -3.54007 3.19226e-11 
957 1 -8.35016 -2.55619 -5.90327 -3.54007 3.19226e-11 
958 1 -8.35016 -1.2781 -8.117 -3.54007 3.19226e-11 
960 1 -8.35016 4.04912e-13 -5.90327 -3.54007 3.19226e-11 
961 1 -6.26352 4.06097e-13 -4.42745 -3.54011 4.70314e-09 
962 1 -6.26352 1.2781 -6.64118 -3.54011 4.70314e-09 
963 1 -6.26352 -1.2781 -6.64118 -3.54011 4.70314e-09 
964 1 -6.26352 2.55619 -4.42745 -3.54011 4.70314e-09 
979 1 -6.26352 -2.55619 -4.42745 -3.54011 4.70314e-09 
967 1 -4.17691 1.2781 -5.16536 -3.5397 1.32716e-06 
981 1 -4.17691 -1.2781 -5.16536 -3.5397 1.32716e-06 
1033 1 -4.17691 3.97271e-13 -7.37909 -3.5397 1.32716e-06 